# vtk DataFile Version 2.0
data_150
ASCII
DATASET UNSTRUCTURED_GRID
POINTS 63 float
0.0 0.0 0.0
1.0 0.0 0.0
1.0 10.0 0.0
0.0 10.0 0.0
0.4999999999986921 0.0 0.0
1.0 0.499999999999551 0.0
1.0 0.9999999999991888 0.0
1.0 1.499999999998284 0.0
1.0 1.999999999996824 0.0
1.0 2.499999999995364 0.0
1.0 2.999999999993903 0.0
1.0 3.499999999992442 0.0
1.0 3.999999999991017 0.0
1.0 4.499999999991639 0.0
1.0 4.999999999992399 0.0
1.0 5.499999999993159 0.0
1.0 5.99999999999392 0.0
1.0 6.499999999994679 0.0
1.0 6.999999999995438 0.0
1.0 7.499999999996199 0.0
1.0 7.99999999999696 0.0
1.0 8.49999999999772 0.0
1.0 8.99999999999848 0.0
1.0 9.49999999999924 0.0
0.5000000000020595 10.0 0.0
0.0 9.5 0.0
0.0 8.999999999999998 0.0
0.0 8.499999999999998 0.0
0.0 7.999999999999996 0.0
0.0 7.499999999999995 0.0
0.0 6.999999999999995 0.0
0.0 6.499999999999996 0.0
0.0 5.999999999999996 0.0
0.0 5.499999999999996 0.0
0.0 4.999999999999996 0.0
0.0 4.499999999999997 0.0
0.0 3.999999999999996 0.0
0.0 3.499999999999997 0.0
0.0 2.999999999999998 0.0
0.0 2.499999999999998 0.0
0.0 1.999999999999998 0.0
0.0 1.5 0.0
0.0 0.9999999999999982 0.0
0.0 0.5 0.0
0.4999999999988605 0.4999999999997756 0.0
0.4999999999990288 0.9999999999995937 0.0
0.4999999999991972 1.499999999999142 0.0
0.4999999999993656 1.999999999998411 0.0
0.499999999999534 2.499999999997681 0.0
0.4999999999997023 2.999999999996951 0.0
0.4999999999998707 3.49999999999622 0.0
0.5000000000000391 3.999999999995507 0.0
0.5000000000002074 4.499999999995817 0.0
0.5000000000003758 4.999999999996198 0.0
0.5000000000005441 5.499999999996577 0.0
0.5000000000007125 5.999999999996958 0.0
0.500000000000881 6.499999999997339 0.0
0.5000000000010493 6.999999999997716 0.0
0.5000000000012177 7.499999999998098 0.0
0.500000000001386 7.999999999998479 0.0
0.5000000000015543 8.499999999998856 0.0
0.5000000000017226 8.99999999999924 0.0
0.5000000000018909 9.49999999999962 0.0
CELLS 40 200
4 0 4 44 43
4 43 44 45 42
4 42 45 46 41
4 41 46 47 40
4 40 47 48 39
4 39 48 49 38
4 38 49 50 37
4 37 50 51 36
4 36 51 52 35
4 35 52 53 34
4 34 53 54 33
4 33 54 55 32
4 32 55 56 31
4 31 56 57 30
4 30 57 58 29
4 29 58 59 28
4 28 59 60 27
4 27 60 61 26
4 26 61 62 25
4 25 62 24 3
4 4 1 5 44
4 44 5 6 45
4 45 6 7 46
4 46 7 8 47
4 47 8 9 48
4 48 9 10 49
4 49 10 11 50
4 50 11 12 51
4 51 12 13 52
4 52 13 14 53
4 53 14 15 54
4 54 15 16 55
4 55 16 17 56
4 56 17 18 57
4 57 18 19 58
4 58 19 20 59
4 59 20 21 60
4 60 21 22 61
4 61 22 23 62
4 62 23 2 24
CELL_TYPES 40
9
9
9
9
9
9
9
9
9
9
9
9
9
9
9
9
9
9
9
9
9
9
9
9
9
9
9
9
9
9
9
9
9
9
9
9
9
9
9
9
POINT_DATA 63
VECTORS displacement double
0.0 0.0 0.0
0.0 0.0 0.0
0.0 -0.9001110443725077 0.0
0.0 -0.900111044372045 0.0
-2.2621388992861265e-16 0.0 0.0
0.0 -0.05053853672304227 0.0
0.0 -0.10075539347702055 0.0
0.0 -0.15030493918006657 0.0
0.0 -0.19858854704977824 0.0
0.0 -0.24489012569413077 0.0
0.0 -0.28854025797283045 0.0
0.0 -0.3292555489154946 0.0
0.0 -0.3671897659634468 0.0
0.0 -0.4030698429105652 0.0
0.0 -0.4380775530069765 0.0
0.0 -0.47347926879908603 0.0
0.0 -0.5104984350656326 0.0
0.0 -0.5500146631964283 0.0
0.0 -0.5924905898057666 0.0
0.0 -0.6380593146818992 0.0
0.0 -0.686321172363812 0.0
0.0 -0.7363100050281428 0.0
0.0 -0.7866280670754762 0.0
0.0 -0.8364673009548673 0.0
3.727314096901399e-14 -0.8639371039428377 0.0
0.0 -0.8364673009548382 0.0
0.0 -0.7866280670756095 0.0
0.0 -0.7363100050283699 0.0
0.0 -0.6863211723641114 0.0
0.0 -0.6380593146822562 0.0
0.0 -0.5924905898061683 0.0
0.0 -0.5500146631968635 0.0
0.0 -0.5104984350660949 0.0
0.0 -0.4734792687995788 0.0
0.0 -0.43807755300750884 0.0
0.0 -0.40306984291115466 0.0
0.0 -0.36718976596410613 0.0
0.0 -0.3292555489160894 0.0
0.0 -0.2885402579733467 0.0
0.0 -0.24489012569454835 0.0
0.0 -0.19858854705007736 0.0
0.0 -0.15030493918023496 0.0
0.0 -0.1007553934771019 0.0
0.0 -0.05053853672308843 0.0
-2.073081324940564e-16 -0.05054344528774182 0.0
1.9136660199467556e-16 -0.10076565299357242 0.0
-3.5283014054344443e-16 -0.15031347922701516 0.0
-6.358207504794537e-17 -0.19859533167249882 0.0
6.949099849613605e-16 -0.2448788418283063 0.0
2.571192982527927e-16 -0.2885212930157906 0.0
-4.032608990938348e-16 -0.3292292198283148 0.0
1.773605235086204e-16 -0.367173233734305 0.0
1.7668734794321423e-17 -0.40308091769698906 0.0
-5.405728969586844e-16 -0.43808697408815267 0.0
-2.9615825863015845e-16 -0.47349775668810457 0.0
2.9085164772071113e-16 -0.5104940849159529 0.0
3.547289613326839e-16 -0.5500149214005252 0.0
-5.753523712612694e-17 -0.5925180568311552 0.0
2.665388224822026e-16 -0.6380849598166064 0.0
3.1904253107571927e-17 -0.6863210564739921 0.0
-1.701389748848381e-15 -0.7363186132719675 0.0
-7.0520866356966884e-15 -0.7865567281446055 0.0
-3.729268228925815e-14 -0.8346688324194571 0.0
VECTORS velocity double
0.0 0.0 0.0
0.0 0.0 0.0
0.0 11.82068469358924 0.0
0.0 11.820684693586827 0.0
-2.635241406375494e-13 0.0 0.0
0.0 1.9709055578340178 0.0
0.0 3.978481598882032 0.0
0.0 6.103590837563509 0.0
0.0 8.270017164884374 0.0
0.0 10.29455700096381 0.0
0.0 11.99220166048471 0.0
0.0 13.22707922180236 0.0
0.0 13.974747392749682 0.0
0.0 14.337987453021075 0.0
0.0 14.403805332974867 0.0
0.0 14.399997663219747 0.0
0.0 14.351402915472628 0.0
0.0 14.182280432613247 0.0
0.0 13.923408312231114 0.0
0.0 13.55707278974759 0.0
0.0 13.086265976962784 0.0
0.0 12.596296292073802 0.0
0.0 12.206469048285449 0.0
0.0 11.941734056075521 0.0
1.6358158546544427e-13 11.828968161705923 0.0
0.0 11.941734056072512 0.0
0.0 12.206469048283484 0.0
0.0 12.596296292071074 0.0
0.0 13.086265976958874 0.0
0.0 13.557072789743476 0.0
0.0 13.923408312227224 0.0
0.0 14.182280432610204 0.0
0.0 14.351402915469887 0.0
0.0 14.399997663218517 0.0
0.0 14.403805332974605 0.0
0.0 14.337987453024331 0.0
0.0 13.974747392760078 0.0
0.0 13.227079221817817 0.0
0.0 11.992201660502872 0.0
0.0 10.294557000981172 0.0
0.0 8.270017164898162 0.0
0.0 6.103590837571604 0.0
0.0 3.9784815988857853 0.0
0.0 1.9709055578360053 0.0
-1.4642239665897305e-13 1.9861022623722462 0.0
2.0167250917057706e-13 3.9904227970582338 0.0
1.5974164259149717e-13 6.125363700464467 0.0
2.3632262882330566e-14 8.26768623655471 0.0
7.105464784143205e-15 10.293447722824592 0.0
-3.366882102238986e-13 11.98010503898113 0.0
-2.0736692149750816e-13 13.21971307642147 0.0
3.9529091910845865e-14 13.978033158561836 0.0
4.1581859239241747e-13 14.334674978018178 0.0
1.8032926348517396e-13 14.394438804735067 0.0
3.7581434681907734e-13 14.385661558712492 0.0
-8.289550665099921e-14 14.334181842454875 0.0
1.460383973579203e-14 14.188838043117448 0.0
2.1146462613863318e-13 13.934344502236168 0.0
-4.766075737113404e-13 13.54178208647454 0.0
-2.994552518175326e-13 13.085854910895616 0.0
-2.1965597631790914e-13 12.60436472414679 0.0
3.587675669943665e-13 12.210915630512837 0.0
2.684641216364225e-13 11.939893751258932 0.0
VECTORS boundary_conditions double
1.0 1.0 0.0
1.0 1.0 0.0
1.0 0.0 0.0
1.0 0.0 0.0
0.0 1.0 0.0
1.0 0.0 0.0
1.0 0.0 0.0
1.0 0.0 0.0
1.0 0.0 0.0
1.0 0.0 0.0
1.0 0.0 0.0
1.0 0.0 0.0
1.0 0.0 0.0
1.0 0.0 0.0
1.0 0.0 0.0
1.0 0.0 0.0
1.0 0.0 0.0
1.0 0.0 0.0
1.0 0.0 0.0
1.0 0.0 0.0
1.0 0.0 0.0
1.0 0.0 0.0
1.0 0.0 0.0
1.0 0.0 0.0
0.0 0.0 0.0
1.0 0.0 0.0
1.0 0.0 0.0
1.0 0.0 0.0
1.0 0.0 0.0
1.0 0.0 0.0
1.0 0.0 0.0
1.0 0.0 0.0
1.0 0.0 0.0
1.0 0.0 0.0
1.0 0.0 0.0
1.0 0.0 0.0
1.0 0.0 0.0
1.0 0.0 0.0
1.0 0.0 0.0
1.0 0.0 0.0
1.0 0.0 0.0
1.0 0.0 0.0
1.0 0.0 0.0
1.0 0.0 0.0
0.0 0.0 0.0
0.0 0.0 0.0
0.0 0.0 0.0
0.0 0.0 0.0
0.0 0.0 0.0
0.0 0.0 0.0
0.0 0.0 0.0
0.0 0.0 0.0
0.0 0.0 0.0
0.0 0.0 0.0
0.0 0.0 0.0
0.0 0.0 0.0
0.0 0.0 0.0
0.0 0.0 0.0
0.0 0.0 0.0
0.0 0.0 0.0
0.0 0.0 0.0
0.0 0.0 0.0
0.0 0.0 0.0
CELL_DATA 40
SCALARS material_index double
LOOKUP_TABLE default
1.0
1.0
1.0
1.0
1.0
1.0
1.0
1.0
1.0
1.0
1.0
1.0
1.0
1.0
1.0
1.0
1.0
1.0
1.0
1.0
1.0
1.0
1.0
1.0
1.0
1.0
1.0
1.0
1.0
1.0
1.0
1.0
1.0
1.0
1.0
1.0
1.0
1.0
1.0
1.0
SCALARS material_prop_density double
LOOKUP_TABLE default
1500.0
1500.0
1500.0
1500.0
1500.0
1500.0
1500.0
1500.0
1500.0
1500.0
1500.0
1500.0
1500.0
1500.0
1500.0
1500.0
1500.0
1500.0
1500.0
1500.0
1500.0
1500.0
1500.0
1500.0
1500.0
1500.0
1500.0
1500.0
1500.0
1500.0
1500.0
1500.0
1500.0
1500.0
1500.0
1500.0
1500.0
1500.0
1500.0
1500.0
SCALARS material_prop_Young double
LOOKUP_TABLE default
30000000.0
30000000.0
30000000.0
30000000.0
30000000.0
30000000.0
30000000.0
30000000.0
30000000.0
30000000.0
30000000.0
30000000.0
30000000.0
30000000.0
30000000.0
30000000.0
30000000.0
30000000.0
30000000.0
30000000.0
30000000.0
30000000.0
30000000.0
30000000.0
30000000.0
30000000.0
30000000.0
30000000.0
30000000.0
30000000.0
30000000.0
30000000.0
30000000.0
30000000.0
30000000.0
30000000.0
30000000.0
30000000.0
30000000.0
30000000.0
SCALARS material_prop_poisson double
LOOKUP_TABLE default
0.2
0.2
0.2
0.2
0.2
0.2
0.2
0.2
0.2
0.2
0.2
0.2
0.2
0.2
0.2
0.2
0.2
0.2
0.2
0.2
0.2
0.2
0.2
0.2
0.2
0.2
0.2
0.2
0.2
0.2
0.2
0.2
0.2
0.2
0.2
0.2
0.2
0.2
0.2
0.2
