# vtk DataFile Version 2.0
data_39
ASCII
DATASET UNSTRUCTURED_GRID
POINTS 63 float
0.0 0.0 0.0
1.0 0.0 0.0
1.0 10.0 0.0
0.0 10.0 0.0
0.4999999999986921 0.0 0.0
1.0 0.499999999999551 0.0
1.0 0.9999999999991888 0.0
1.0 1.499999999998284 0.0
1.0 1.999999999996824 0.0
1.0 2.499999999995364 0.0
1.0 2.999999999993903 0.0
1.0 3.499999999992442 0.0
1.0 3.999999999991017 0.0
1.0 4.499999999991639 0.0
1.0 4.999999999992399 0.0
1.0 5.499999999993159 0.0
1.0 5.99999999999392 0.0
1.0 6.499999999994679 0.0
1.0 6.999999999995438 0.0
1.0 7.499999999996199 0.0
1.0 7.99999999999696 0.0
1.0 8.49999999999772 0.0
1.0 8.99999999999848 0.0
1.0 9.49999999999924 0.0
0.5000000000020595 10.0 0.0
0.0 9.5 0.0
0.0 8.999999999999998 0.0
0.0 8.499999999999998 0.0
0.0 7.999999999999996 0.0
0.0 7.499999999999995 0.0
0.0 6.999999999999995 0.0
0.0 6.499999999999996 0.0
0.0 5.999999999999996 0.0
0.0 5.499999999999996 0.0
0.0 4.999999999999996 0.0
0.0 4.499999999999997 0.0
0.0 3.999999999999996 0.0
0.0 3.499999999999997 0.0
0.0 2.999999999999998 0.0
0.0 2.499999999999998 0.0
0.0 1.999999999999998 0.0
0.0 1.5 0.0
0.0 0.9999999999999982 0.0
0.0 0.5 0.0
0.4999999999988605 0.4999999999997756 0.0
0.4999999999990288 0.9999999999995937 0.0
0.4999999999991972 1.499999999999142 0.0
0.4999999999993656 1.999999999998411 0.0
0.499999999999534 2.499999999997681 0.0
0.4999999999997023 2.999999999996951 0.0
0.4999999999998707 3.49999999999622 0.0
0.5000000000000391 3.999999999995507 0.0
0.5000000000002074 4.499999999995817 0.0
0.5000000000003758 4.999999999996198 0.0
0.5000000000005441 5.499999999996577 0.0
0.5000000000007125 5.999999999996958 0.0
0.500000000000881 6.499999999997339 0.0
0.5000000000010493 6.999999999997716 0.0
0.5000000000012177 7.499999999998098 0.0
0.500000000001386 7.999999999998479 0.0
0.5000000000015543 8.499999999998856 0.0
0.5000000000017226 8.99999999999924 0.0
0.5000000000018909 9.49999999999962 0.0
CELLS 40 200
4 0 4 44 43
4 43 44 45 42
4 42 45 46 41
4 41 46 47 40
4 40 47 48 39
4 39 48 49 38
4 38 49 50 37
4 37 50 51 36
4 36 51 52 35
4 35 52 53 34
4 34 53 54 33
4 33 54 55 32
4 32 55 56 31
4 31 56 57 30
4 30 57 58 29
4 29 58 59 28
4 28 59 60 27
4 27 60 61 26
4 26 61 62 25
4 25 62 24 3
4 4 1 5 44
4 44 5 6 45
4 45 6 7 46
4 46 7 8 47
4 47 8 9 48
4 48 9 10 49
4 49 10 11 50
4 50 11 12 51
4 51 12 13 52
4 52 13 14 53
4 53 14 15 54
4 54 15 16 55
4 55 16 17 56
4 56 17 18 57
4 57 18 19 58
4 58 19 20 59
4 59 20 21 60
4 60 21 22 61
4 61 22 23 62
4 62 23 2 24
CELL_TYPES 40
9
9
9
9
9
9
9
9
9
9
9
9
9
9
9
9
9
9
9
9
9
9
9
9
9
9
9
9
9
9
9
9
9
9
9
9
9
9
9
9
POINT_DATA 63
VECTORS displacement double
0.0 0.0 0.0
0.0 0.0 0.0
0.0 -1.1376780581875265 0.0
0.0 -1.1376780581870547 0.0
1.1403186713377018e-15 0.0 0.0
0.0 -0.08481945335387389 0.0
0.0 -0.16786938760659567 0.0
0.0 -0.2494107880158357 0.0
0.0 -0.3280883832991115 0.0
0.0 -0.4019950373434895 0.0
0.0 -0.4705890335803495 0.0
0.0 -0.5329054250784228 0.0
0.0 -0.5889112117884744 0.0
0.0 -0.6384849136806706 0.0
0.0 -0.6820232110027604 0.0
0.0 -0.7225872672553184 0.0
0.0 -0.7615568868364772 0.0
0.0 -0.8012856668347748 0.0
0.0 -0.843934305049309 0.0
0.0 -0.8889694276968294 0.0
0.0 -0.9359344852658336 0.0
0.0 -0.982862230967479 0.0
0.0 -1.0292071743381628 0.0
0.0 -1.0753935091046198 0.0
3.916502535592752e-14 -1.1012660406497372 0.0
0.0 -1.0753935091045819 0.0
0.0 -1.0292071743382791 0.0
0.0 -0.9828622309676867 0.0
0.0 -0.9359344852661152 0.0
0.0 -0.8889694276971782 0.0
0.0 -0.8439343050497055 0.0
0.0 -0.8012856668352123 0.0
0.0 -0.7615568868369452 0.0
0.0 -0.7225872672558568 0.0
0.0 -0.6820232110033906 0.0
0.0 -0.6384849136814429 0.0
0.0 -0.5889112117894277 0.0
0.0 -0.532905425079316 0.0
0.0 -0.4705890335811558 0.0
0.0 -0.4019950373441532 0.0
0.0 -0.3280883832995964 0.0
0.0 -0.24941078801611696 0.0
0.0 -0.16786938760672887 0.0
0.0 -0.0848194533539482 0.0
-1.6487566451889024e-15 -0.08481944289323802 0.0
1.0778540492139131e-15 -0.16786939289670455 0.0
1.1359025587174967e-15 -0.2494109385044336 0.0
-2.64548185216569e-15 -0.3280879001554683 0.0
2.201274247613329e-15 -0.40199434266058787 0.0
-1.1774901659758607e-15 -0.47059534370306205 0.0
1.5040248442390463e-16 -0.5329012542594982 0.0
1.6935929688417138e-15 -0.588871659046683 0.0
-1.5262365315335286e-15 -0.638549616590462 0.0
-1.7121537859924374e-16 -0.6821529646847743 0.0
1.0772612977762933e-16 -0.7222944005231307 0.0
1.2191587543027498e-15 -0.7613360090538501 0.0
-2.645797967233251e-15 -0.8017621833029055 0.0
-9.63462543031967e-16 -0.844161995764706 0.0
9.124872040086405e-16 -0.8890712797647391 0.0
7.029085167468608e-16 -0.9358563532478156 0.0
3.583603375137059e-16 -0.9825455230293921 0.0
-6.952822586022325e-15 -1.0288963214173852 0.0
-3.8739713189534765e-14 -1.0731730630569847 0.0
VECTORS velocity double
0.0 0.0 0.0
0.0 0.0 0.0
0.0 14.019574399158206 0.0
0.0 14.019574399157193 0.0
-3.955837901798654e-12 0.0 0.0
0.0 0.8483534534387902 0.0
0.0 1.453168220833279 0.0
0.0 2.4973989075939826 0.0
0.0 4.010233290269467 0.0
0.0 5.271724033667826 0.0
0.0 6.99343729000102 0.0
0.0 9.28988516352935 0.0
0.0 11.158149389912774 0.0
0.0 12.996262982047808 0.0
0.0 14.228313046840377 0.0
0.0 14.90110621870671 0.0
0.0 15.430370088516034 0.0
0.0 14.634032073819698 0.0
0.0 13.720250588432208 0.0
0.0 12.854375138336833 0.0
0.0 12.338092312985193 0.0
0.0 12.511278509317679 0.0
0.0 13.035374067539687 0.0
0.0 13.786209343361595 0.0
-5.3881213440379817e-14 14.114372098242367 0.0
0.0 13.786209343358646 0.0
0.0 13.035374067540996 0.0
0.0 12.511278509317696 0.0
0.0 12.338092312984838 0.0
0.0 12.85437513832912 0.0
0.0 13.720250588424115 0.0
0.0 14.63403207380743 0.0
0.0 15.430370088512236 0.0
0.0 14.901106218718043 0.0
0.0 14.228313046851294 0.0
0.0 12.996262982079106 0.0
0.0 11.15814938994457 0.0
0.0 9.289885163562106 0.0
0.0 6.993437290028182 0.0
0.0 5.271724033677149 0.0
0.0 4.010233290281699 0.0
0.0 2.4973989075972396 0.0
0.0 1.4531682208307588 0.0
0.0 0.8483534534443651 0.0
1.1638722081972777e-12 0.8483614857404977 0.0
3.2304845315935035e-12 1.4531319829024154 0.0
-3.274557638765465e-12 2.4974024095586342 0.0
3.2953020398546426e-14 4.010728115188944 0.0
1.7642841156170817e-12 5.270398692164261 0.0
-1.2199743214930157e-12 6.991300642706497 0.0
7.544930233072149e-13 9.305232024003182 0.0
-1.5405154499493818e-12 11.14979540092478 0.0
1.2045075546361063e-12 12.918427592803896 0.0
-1.607649489813115e-13 14.342146800183484 0.0
3.7661268739759084e-13 15.082652211779532 0.0
-2.128848338298748e-13 15.063434006823577 0.0
-1.1828015674121978e-12 14.471788171210507 0.0
2.0629635976426055e-12 13.978431858849055 0.0
-3.907843005472928e-13 12.922839350568491 0.0
6.375134132256068e-13 12.678573980200147 0.0
-5.596387817894324e-13 12.526449539496555 0.0
-9.793412910706935e-14 13.203521449265777 0.0
-5.606213110078482e-13 13.72995406055071 0.0
VECTORS boundary_conditions double
1.0 1.0 0.0
1.0 1.0 0.0
1.0 0.0 0.0
1.0 0.0 0.0
0.0 1.0 0.0
1.0 0.0 0.0
1.0 0.0 0.0
1.0 0.0 0.0
1.0 0.0 0.0
1.0 0.0 0.0
1.0 0.0 0.0
1.0 0.0 0.0
1.0 0.0 0.0
1.0 0.0 0.0
1.0 0.0 0.0
1.0 0.0 0.0
1.0 0.0 0.0
1.0 0.0 0.0
1.0 0.0 0.0
1.0 0.0 0.0
1.0 0.0 0.0
1.0 0.0 0.0
1.0 0.0 0.0
1.0 0.0 0.0
0.0 0.0 0.0
1.0 0.0 0.0
1.0 0.0 0.0
1.0 0.0 0.0
1.0 0.0 0.0
1.0 0.0 0.0
1.0 0.0 0.0
1.0 0.0 0.0
1.0 0.0 0.0
1.0 0.0 0.0
1.0 0.0 0.0
1.0 0.0 0.0
1.0 0.0 0.0
1.0 0.0 0.0
1.0 0.0 0.0
1.0 0.0 0.0
1.0 0.0 0.0
1.0 0.0 0.0
1.0 0.0 0.0
1.0 0.0 0.0
0.0 0.0 0.0
0.0 0.0 0.0
0.0 0.0 0.0
0.0 0.0 0.0
0.0 0.0 0.0
0.0 0.0 0.0
0.0 0.0 0.0
0.0 0.0 0.0
0.0 0.0 0.0
0.0 0.0 0.0
0.0 0.0 0.0
0.0 0.0 0.0
0.0 0.0 0.0
0.0 0.0 0.0
0.0 0.0 0.0
0.0 0.0 0.0
0.0 0.0 0.0
0.0 0.0 0.0
0.0 0.0 0.0
CELL_DATA 40
SCALARS material_index double
LOOKUP_TABLE default
1.0
1.0
1.0
1.0
1.0
1.0
1.0
1.0
1.0
1.0
1.0
1.0
1.0
1.0
1.0
1.0
1.0
1.0
1.0
1.0
1.0
1.0
1.0
1.0
1.0
1.0
1.0
1.0
1.0
1.0
1.0
1.0
1.0
1.0
1.0
1.0
1.0
1.0
1.0
1.0
SCALARS material_prop_density double
LOOKUP_TABLE default
1500.0
1500.0
1500.0
1500.0
1500.0
1500.0
1500.0
1500.0
1500.0
1500.0
1500.0
1500.0
1500.0
1500.0
1500.0
1500.0
1500.0
1500.0
1500.0
1500.0
1500.0
1500.0
1500.0
1500.0
1500.0
1500.0
1500.0
1500.0
1500.0
1500.0
1500.0
1500.0
1500.0
1500.0
1500.0
1500.0
1500.0
1500.0
1500.0
1500.0
SCALARS material_prop_Young double
LOOKUP_TABLE default
30000000.0
30000000.0
30000000.0
30000000.0
30000000.0
30000000.0
30000000.0
30000000.0
30000000.0
30000000.0
30000000.0
30000000.0
30000000.0
30000000.0
30000000.0
30000000.0
30000000.0
30000000.0
30000000.0
30000000.0
30000000.0
30000000.0
30000000.0
30000000.0
30000000.0
30000000.0
30000000.0
30000000.0
30000000.0
30000000.0
30000000.0
30000000.0
30000000.0
30000000.0
30000000.0
30000000.0
30000000.0
30000000.0
30000000.0
30000000.0
SCALARS material_prop_poisson double
LOOKUP_TABLE default
0.2
0.2
0.2
0.2
0.2
0.2
0.2
0.2
0.2
0.2
0.2
0.2
0.2
0.2
0.2
0.2
0.2
0.2
0.2
0.2
0.2
0.2
0.2
0.2
0.2
0.2
0.2
0.2
0.2
0.2
0.2
0.2
0.2
0.2
0.2
0.2
0.2
0.2
0.2
0.2
