# vtk DataFile Version 2.0
data_132
ASCII
DATASET UNSTRUCTURED_GRID
POINTS 63 float
0.0 0.0 0.0
1.0 0.0 0.0
1.0 10.0 0.0
0.0 10.0 0.0
0.4999999999986921 0.0 0.0
1.0 0.499999999999551 0.0
1.0 0.9999999999991888 0.0
1.0 1.499999999998284 0.0
1.0 1.999999999996824 0.0
1.0 2.499999999995364 0.0
1.0 2.999999999993903 0.0
1.0 3.499999999992442 0.0
1.0 3.999999999991017 0.0
1.0 4.499999999991639 0.0
1.0 4.999999999992399 0.0
1.0 5.499999999993159 0.0
1.0 5.99999999999392 0.0
1.0 6.499999999994679 0.0
1.0 6.999999999995438 0.0
1.0 7.499999999996199 0.0
1.0 7.99999999999696 0.0
1.0 8.49999999999772 0.0
1.0 8.99999999999848 0.0
1.0 9.49999999999924 0.0
0.5000000000020595 10.0 0.0
0.0 9.5 0.0
0.0 8.999999999999998 0.0
0.0 8.499999999999998 0.0
0.0 7.999999999999996 0.0
0.0 7.499999999999995 0.0
0.0 6.999999999999995 0.0
0.0 6.499999999999996 0.0
0.0 5.999999999999996 0.0
0.0 5.499999999999996 0.0
0.0 4.999999999999996 0.0
0.0 4.499999999999997 0.0
0.0 3.999999999999996 0.0
0.0 3.499999999999997 0.0
0.0 2.999999999999998 0.0
0.0 2.499999999999998 0.0
0.0 1.999999999999998 0.0
0.0 1.5 0.0
0.0 0.9999999999999982 0.0
0.0 0.5 0.0
0.4999999999988605 0.4999999999997756 0.0
0.4999999999990288 0.9999999999995937 0.0
0.4999999999991972 1.499999999999142 0.0
0.4999999999993656 1.999999999998411 0.0
0.499999999999534 2.499999999997681 0.0
0.4999999999997023 2.999999999996951 0.0
0.4999999999998707 3.49999999999622 0.0
0.5000000000000391 3.999999999995507 0.0
0.5000000000002074 4.499999999995817 0.0
0.5000000000003758 4.999999999996198 0.0
0.5000000000005441 5.499999999996577 0.0
0.5000000000007125 5.999999999996958 0.0
0.500000000000881 6.499999999997339 0.0
0.5000000000010493 6.999999999997716 0.0
0.5000000000012177 7.499999999998098 0.0
0.500000000001386 7.999999999998479 0.0
0.5000000000015543 8.499999999998856 0.0
0.5000000000017226 8.99999999999924 0.0
0.5000000000018909 9.49999999999962 0.0
CELLS 40 200
4 0 4 44 43
4 43 44 45 42
4 42 45 46 41
4 41 46 47 40
4 40 47 48 39
4 39 48 49 38
4 38 49 50 37
4 37 50 51 36
4 36 51 52 35
4 35 52 53 34
4 34 53 54 33
4 33 54 55 32
4 32 55 56 31
4 31 56 57 30
4 30 57 58 29
4 29 58 59 28
4 28 59 60 27
4 27 60 61 26
4 26 61 62 25
4 25 62 24 3
4 4 1 5 44
4 44 5 6 45
4 45 6 7 46
4 46 7 8 47
4 47 8 9 48
4 48 9 10 49
4 49 10 11 50
4 50 11 12 51
4 51 12 13 52
4 52 13 14 53
4 53 14 15 54
4 54 15 16 55
4 55 16 17 56
4 56 17 18 57
4 57 18 19 58
4 58 19 20 59
4 59 20 21 60
4 60 21 22 61
4 61 22 23 62
4 62 23 2 24
CELL_TYPES 40
9
9
9
9
9
9
9
9
9
9
9
9
9
9
9
9
9
9
9
9
9
9
9
9
9
9
9
9
9
9
9
9
9
9
9
9
9
9
9
9
POINT_DATA 63
VECTORS displacement double
0.0 0.0 0.0
0.0 0.0 0.0
0.0 -1.5065016405500555 0.0
0.0 -1.5065016405495932 0.0
2.5260453215227024e-16 0.0 0.0
0.0 -0.09362113210300674 0.0
0.0 -0.18689019085005315 0.0
0.0 -0.27976952306500275 0.0
0.0 -0.3722996875738265 0.0
0.0 -0.46441757282458623 0.0
0.0 -0.5560069336078495 0.0
0.0 -0.64652616519749 0.0
0.0 -0.7352740734983932 0.0
0.0 -0.8212144472691494 0.0
0.0 -0.9031132325488811 0.0
0.0 -0.9799297299241029 0.0
0.0 -1.051311436595589 0.0
0.0 -1.1173777597613443 0.0
0.0 -1.1787007935475495 0.0
0.0 -1.236318331260914 0.0
0.0 -1.2910846519244852 0.0
0.0 -1.3435819443099155 0.0
0.0 -1.3939872975812102 0.0
0.0 -1.4431664662255077 0.0
3.6446601004963265e-14 -1.4703174389090023 0.0
0.0 -1.4431664662254793 0.0
0.0 -1.3939872975813463 0.0
0.0 -1.3435819443101493 0.0
0.0 -1.2910846519248123 0.0
0.0 -1.236318331261343 0.0
0.0 -1.1787007935480904 0.0
0.0 -1.117377759762018 0.0
0.0 -1.051311436596423 0.0
0.0 -0.9799297299251172 0.0
0.0 -0.9031132325500886 0.0
0.0 -0.8212144472705573 0.0
0.0 -0.7352740734999675 0.0
0.0 -0.6465261651988476 0.0
0.0 -0.5560069336089611 0.0
0.0 -0.46441757282543716 0.0
0.0 -0.37229968757441056 0.0
0.0 -0.27976952306531994 0.0
0.0 -0.18689019085020359 0.0
0.0 -0.09362113210309089 0.0
-1.0712733532191852e-16 -0.09361873233758579 0.0
-2.440424262371124e-16 -0.18688436528634172 0.0
2.0716054406506094e-16 -0.27977280354042283 0.0
-6.230230272260691e-16 -0.37229863257289825 0.0
3.656815829314882e-17 -0.46439792420886566 0.0
-2.4677156257339107e-17 -0.5559814023531928 0.0
5.387311021254564e-16 -0.6465108133170226 0.0
1.2508584289555334e-15 -0.7352848698772264 0.0
-4.566499266900665e-16 -0.8212721780374854 0.0
-1.1828995138409746e-16 -0.9031251997731133 0.0
-3.03810334803652e-16 -0.9799293123306804 0.0
-1.0747404996608262e-15 -1.0513396651668367 0.0
-2.0803653371390484e-16 -1.1174028904720923 0.0
1.332907570228368e-15 -1.178704232409041 0.0
2.9014667628425786e-16 -1.2363202739589283 0.0
-4.299978794352179e-16 -1.2910904733135122 0.0
-5.234500416925522e-16 -1.3435738981967214 0.0
-6.167161791272898e-15 -1.3938939221801747 0.0
-3.810698104682826e-14 -1.4413456345162234 0.0
VECTORS velocity double
0.0 0.0 0.0
0.0 0.0 0.0
0.0 -11.862173114594551 0.0
0.0 -11.862173114594434 0.0
2.1754713770093373e-13 0.0 0.0
0.0 1.4351946028593765 0.0
0.0 2.591953455669565 0.0
0.0 3.197347227072931 0.0
0.0 3.2137118301521266 0.0
0.0 2.715881073977921 0.0
0.0 1.7722057262783384 0.0
0.0 0.5178169485127899 0.0
0.0 -1.0059809982888392 0.0
0.0 -2.598174789935987 0.0
0.0 -4.150324376645553 0.0
0.0 -5.520073073927234 0.0
0.0 -6.553231795263024 0.0
0.0 -7.283524734946951 0.0
0.0 -7.91062804852627 0.0
0.0 -8.536156238027605 0.0
0.0 -9.34449848231265 0.0
0.0 -10.199539076061651 0.0
0.0 -11.019527564401113 0.0
0.0 -11.625688080241119 0.0
-5.904203661519022e-13 -11.843700128778067 0.0
0.0 -11.625688080241556 0.0
0.0 -11.019527564403294 0.0
0.0 -10.19953907606558 0.0
0.0 -9.344498482318105 0.0
0.0 -8.536156238032827 0.0
0.0 -7.9106280485314 0.0
0.0 -7.28352473495586 0.0
0.0 -6.553231795274199 0.0
0.0 -5.520073073943724 0.0
0.0 -4.150324376668339 0.0
0.0 -2.5981747899631316 0.0
0.0 -1.005980998317547 0.0
0.0 0.5178169484926514 0.0
0.0 1.7722057262654154 0.0
0.0 2.715881073972133 0.0
0.0 3.213711830150472 0.0
0.0 3.1973472270739096 0.0
0.0 2.5919534556710864 0.0
0.0 1.4351946028608173 0.0
-1.5934463148217956e-13 1.4641810916134967 0.0
1.080562341878159e-13 2.610294448086718 0.0
2.281989752264111e-14 3.230676147328847 0.0
-4.878891162058726e-13 3.1959924622478573 0.0
2.8879793492574846e-13 2.698168125148192 0.0
2.2720872893997714e-13 1.7510260972258411 0.0
1.6336303230142103e-16 0.503081979647634 0.0
9.660450849858264e-14 -0.9896809738207697 0.0
-1.6788956468192076e-13 -2.611400349014872 0.0
-3.397212240534031e-13 -4.173864692931222 0.0
9.291608645229232e-14 -5.511852700719885 0.0
4.4507076380738196e-13 -6.52544421443848 0.0
1.1915553360226716e-13 -7.286447172478448 0.0
-3.8256752902601066e-13 -7.895714076302486 0.0
6.507438371860654e-13 -8.523005889504677 0.0
1.1855138798708897e-14 -9.324555901595605 0.0
-1.24768488606572e-13 -10.191732153722349 0.0
-1.595486407295059e-13 -11.000003977984417 0.0
1.408172893686792e-13 -11.616328008286242 0.0
VECTORS boundary_conditions double
1.0 1.0 0.0
1.0 1.0 0.0
1.0 0.0 0.0
1.0 0.0 0.0
0.0 1.0 0.0
1.0 0.0 0.0
1.0 0.0 0.0
1.0 0.0 0.0
1.0 0.0 0.0
1.0 0.0 0.0
1.0 0.0 0.0
1.0 0.0 0.0
1.0 0.0 0.0
1.0 0.0 0.0
1.0 0.0 0.0
1.0 0.0 0.0
1.0 0.0 0.0
1.0 0.0 0.0
1.0 0.0 0.0
1.0 0.0 0.0
1.0 0.0 0.0
1.0 0.0 0.0
1.0 0.0 0.0
1.0 0.0 0.0
0.0 0.0 0.0
1.0 0.0 0.0
1.0 0.0 0.0
1.0 0.0 0.0
1.0 0.0 0.0
1.0 0.0 0.0
1.0 0.0 0.0
1.0 0.0 0.0
1.0 0.0 0.0
1.0 0.0 0.0
1.0 0.0 0.0
1.0 0.0 0.0
1.0 0.0 0.0
1.0 0.0 0.0
1.0 0.0 0.0
1.0 0.0 0.0
1.0 0.0 0.0
1.0 0.0 0.0
1.0 0.0 0.0
1.0 0.0 0.0
0.0 0.0 0.0
0.0 0.0 0.0
0.0 0.0 0.0
0.0 0.0 0.0
0.0 0.0 0.0
0.0 0.0 0.0
0.0 0.0 0.0
0.0 0.0 0.0
0.0 0.0 0.0
0.0 0.0 0.0
0.0 0.0 0.0
0.0 0.0 0.0
0.0 0.0 0.0
0.0 0.0 0.0
0.0 0.0 0.0
0.0 0.0 0.0
0.0 0.0 0.0
0.0 0.0 0.0
0.0 0.0 0.0
CELL_DATA 40
SCALARS material_index double
LOOKUP_TABLE default
1.0
1.0
1.0
1.0
1.0
1.0
1.0
1.0
1.0
1.0
1.0
1.0
1.0
1.0
1.0
1.0
1.0
1.0
1.0
1.0
1.0
1.0
1.0
1.0
1.0
1.0
1.0
1.0
1.0
1.0
1.0
1.0
1.0
1.0
1.0
1.0
1.0
1.0
1.0
1.0
SCALARS material_prop_density double
LOOKUP_TABLE default
1500.0
1500.0
1500.0
1500.0
1500.0
1500.0
1500.0
1500.0
1500.0
1500.0
1500.0
1500.0
1500.0
1500.0
1500.0
1500.0
1500.0
1500.0
1500.0
1500.0
1500.0
1500.0
1500.0
1500.0
1500.0
1500.0
1500.0
1500.0
1500.0
1500.0
1500.0
1500.0
1500.0
1500.0
1500.0
1500.0
1500.0
1500.0
1500.0
1500.0
SCALARS material_prop_Young double
LOOKUP_TABLE default
30000000.0
30000000.0
30000000.0
30000000.0
30000000.0
30000000.0
30000000.0
30000000.0
30000000.0
30000000.0
30000000.0
30000000.0
30000000.0
30000000.0
30000000.0
30000000.0
30000000.0
30000000.0
30000000.0
30000000.0
30000000.0
30000000.0
30000000.0
30000000.0
30000000.0
30000000.0
30000000.0
30000000.0
30000000.0
30000000.0
30000000.0
30000000.0
30000000.0
30000000.0
30000000.0
30000000.0
30000000.0
30000000.0
30000000.0
30000000.0
SCALARS material_prop_poisson double
LOOKUP_TABLE default
0.2
0.2
0.2
0.2
0.2
0.2
0.2
0.2
0.2
0.2
0.2
0.2
0.2
0.2
0.2
0.2
0.2
0.2
0.2
0.2
0.2
0.2
0.2
0.2
0.2
0.2
0.2
0.2
0.2
0.2
0.2
0.2
0.2
0.2
0.2
0.2
0.2
0.2
0.2
0.2
