# vtk DataFile Version 2.0
data_48
ASCII
DATASET UNSTRUCTURED_GRID
POINTS 63 float
0.0 0.0 0.0
1.0 0.0 0.0
1.0 10.0 0.0
0.0 10.0 0.0
0.4999999999986921 0.0 0.0
1.0 0.499999999999551 0.0
1.0 0.9999999999991888 0.0
1.0 1.499999999998284 0.0
1.0 1.999999999996824 0.0
1.0 2.499999999995364 0.0
1.0 2.999999999993903 0.0
1.0 3.499999999992442 0.0
1.0 3.999999999991017 0.0
1.0 4.499999999991639 0.0
1.0 4.999999999992399 0.0
1.0 5.499999999993159 0.0
1.0 5.99999999999392 0.0
1.0 6.499999999994679 0.0
1.0 6.999999999995438 0.0
1.0 7.499999999996199 0.0
1.0 7.99999999999696 0.0
1.0 8.49999999999772 0.0
1.0 8.99999999999848 0.0
1.0 9.49999999999924 0.0
0.5000000000020595 10.0 0.0
0.0 9.5 0.0
0.0 8.999999999999998 0.0
0.0 8.499999999999998 0.0
0.0 7.999999999999996 0.0
0.0 7.499999999999995 0.0
0.0 6.999999999999995 0.0
0.0 6.499999999999996 0.0
0.0 5.999999999999996 0.0
0.0 5.499999999999996 0.0
0.0 4.999999999999996 0.0
0.0 4.499999999999997 0.0
0.0 3.999999999999996 0.0
0.0 3.499999999999997 0.0
0.0 2.999999999999998 0.0
0.0 2.499999999999998 0.0
0.0 1.999999999999998 0.0
0.0 1.5 0.0
0.0 0.9999999999999982 0.0
0.0 0.5 0.0
0.4999999999988605 0.4999999999997756 0.0
0.4999999999990288 0.9999999999995937 0.0
0.4999999999991972 1.499999999999142 0.0
0.4999999999993656 1.999999999998411 0.0
0.499999999999534 2.499999999997681 0.0
0.4999999999997023 2.999999999996951 0.0
0.4999999999998707 3.49999999999622 0.0
0.5000000000000391 3.999999999995507 0.0
0.5000000000002074 4.499999999995817 0.0
0.5000000000003758 4.999999999996198 0.0
0.5000000000005441 5.499999999996577 0.0
0.5000000000007125 5.999999999996958 0.0
0.500000000000881 6.499999999997339 0.0
0.5000000000010493 6.999999999997716 0.0
0.5000000000012177 7.499999999998098 0.0
0.500000000001386 7.999999999998479 0.0
0.5000000000015543 8.499999999998856 0.0
0.5000000000017226 8.99999999999924 0.0
0.5000000000018909 9.49999999999962 0.0
CELLS 40 200
4 0 4 44 43
4 43 44 45 42
4 42 45 46 41
4 41 46 47 40
4 40 47 48 39
4 39 48 49 38
4 38 49 50 37
4 37 50 51 36
4 36 51 52 35
4 35 52 53 34
4 34 53 54 33
4 33 54 55 32
4 32 55 56 31
4 31 56 57 30
4 30 57 58 29
4 29 58 59 28
4 28 59 60 27
4 27 60 61 26
4 26 61 62 25
4 25 62 24 3
4 4 1 5 44
4 44 5 6 45
4 45 6 7 46
4 46 7 8 47
4 47 8 9 48
4 48 9 10 49
4 49 10 11 50
4 50 11 12 51
4 51 12 13 52
4 52 13 14 53
4 53 14 15 54
4 54 15 16 55
4 55 16 17 56
4 56 17 18 57
4 57 18 19 58
4 58 19 20 59
4 59 20 21 60
4 60 21 22 61
4 61 22 23 62
4 62 23 2 24
CELL_TYPES 40
9
9
9
9
9
9
9
9
9
9
9
9
9
9
9
9
9
9
9
9
9
9
9
9
9
9
9
9
9
9
9
9
9
9
9
9
9
9
9
9
POINT_DATA 63
VECTORS displacement double
0.0 0.0 0.0
0.0 0.0 0.0
0.0 -0.536869316214708 0.0
0.0 -0.5368693162142378 0.0
5.839051988198808e-15 0.0 0.0
0.0 0.008869751396265751 0.0
0.0 0.01590050953527422 0.0
0.0 0.01881718789434578 0.0
0.0 0.01723773319083781 0.0
0.0 0.011150998539902444 0.0
0.0 0.0004048810025745501 0.0
0.0 -0.015274601971756842 0.0
0.0 -0.03604668115742126 0.0
0.0 -0.062022064959174915 0.0
0.0 -0.094268001246983 0.0
0.0 -0.1307861437883037 0.0
0.0 -0.16976385346600942 0.0
0.0 -0.21078057062874925 0.0
0.0 -0.25279536888372006 0.0
0.0 -0.2960138692342464 0.0
0.0 -0.33951720383133205 0.0
0.0 -0.383870653337912 0.0
0.0 -0.4286426947155424 0.0
0.0 -0.4746837986252045 0.0
3.975428259306436e-14 -0.5004972588058877 0.0
0.0 -0.474683798625163 0.0
0.0 -0.428642694715657 0.0
0.0 -0.3838706533381055 0.0
0.0 -0.33951720383159534 0.0
0.0 -0.29601386923457246 0.0
0.0 -0.25279536888410803 0.0
0.0 -0.21078057062918648 0.0
0.0 -0.1697638534664955 0.0
0.0 -0.1307861437888215 0.0
0.0 -0.09426800124751364 0.0
0.0 -0.06202206495965677 0.0
0.0 -0.036046681157841744 0.0
0.0 -0.01527460197203554 0.0
0.0 0.0004048810024190655 0.0
0.0 0.011150998539822677 0.0
0.0 0.01723773319081213 0.0
0.0 0.018817187894352563 0.0
0.0 0.0159005095352868 0.0
0.0 0.008869751396269063 0.0
-3.2659557115693507e-15 0.008869662632736518 0.0
-1.781851437605911e-15 0.01589972050902416 0.0
3.4546476309451755e-15 0.018819595421986045 0.0
4.406261309831609e-16 0.01724028679069952 0.0
-1.858453779873918e-15 0.011131034280315094 0.0
-5.824055357760921e-16 0.00041232913305681314 0.0
4.396257976825877e-15 -0.01518645479699509 0.0
-4.627126026141015e-15 -0.036136310427376674 0.0
-6.478520269648115e-16 -0.06223676354053224 0.0
6.088120516321276e-16 -0.09400579858812072 0.0
1.013244119474464e-15 -0.13051563869483365 0.0
-6.436688023749918e-16 -0.1699318869007124 0.0
-4.454115529515655e-16 -0.21091186587715313 0.0
4.845009623889543e-16 -0.25309812472572346 0.0
-1.4412993912474607e-15 -0.29612678460956177 0.0
1.935132942119089e-16 -0.33956142027131214 0.0
-1.365274043785526e-15 -0.38381912971833687 0.0
-5.9453363007434095e-15 -0.4284117197450049 0.0
-3.857465263056785e-14 -0.4727500273175024 0.0
VECTORS velocity double
0.0 0.0 0.0
0.0 0.0 0.0
0.0 13.287375186282741 0.0
0.0 13.287375186281235 0.0
-1.893925703565443e-12 0.0 0.0
0.0 -1.1685136994005978 0.0
0.0 -2.1436597291392454 0.0
0.0 -1.8064536655976267 0.0
0.0 -0.6075510796921524 0.0
0.0 1.134221594927869 0.0
0.0 3.7335531074103727 0.0
0.0 5.9948025994578344 0.0
0.0 7.756233878930933 0.0
0.0 9.028687656746955 0.0
0.0 9.932711131657829 0.0
0.0 11.006643688778427 0.0
0.0 11.507465212464476 0.0
0.0 12.328799876168807 0.0
0.0 12.814272467710534 0.0
0.0 12.919530951910955 0.0
0.0 12.985384525907453 0.0
0.0 12.962660424531139 0.0
0.0 13.197830103231626 0.0
0.0 13.157587564754373 0.0
2.1750485480858155e-13 13.309405087737087 0.0
0.0 13.157587564756145 0.0
0.0 13.197830103230782 0.0
0.0 12.962660424533516 0.0
0.0 12.985384525905737 0.0
0.0 12.919530951910856 0.0
0.0 12.814272467711415 0.0
0.0 12.328799876177554 0.0
0.0 11.507465212470438 0.0
0.0 11.006643688788627 0.0
0.0 9.932711131675397 0.0
0.0 9.028687656763086 0.0
0.0 7.756233878961089 0.0
0.0 5.994802599486988 0.0
0.0 3.733553107444287 0.0
0.0 1.1342215949463128 0.0
0.0 -0.6075510796848695 0.0
0.0 -1.8064536655916001 0.0
0.0 -2.143659729142033 0.0
0.0 -1.168513699402862 0.0
1.3340422328715734e-12 -1.1688055025425157 0.0
3.8351042011813885e-13 -2.143420566451388 0.0
-2.1959871215404703e-12 -1.8043515758012483 0.0
2.645243012231233e-12 -0.6131822607638802 0.0
-1.1292805310701063e-12 1.128451043614903 0.0
-3.8859576418974416e-13 3.7733094353146974 0.0
6.185037861455875e-14 5.979721522795188 0.0
-6.389718047399346e-14 7.6185665602732655 0.0
5.866304601143456e-14 9.164218898261941 0.0
-4.115129456995266e-13 10.160191607613426 0.0
1.361476758542201e-12 10.752388485166652 0.0
-6.883522464169566e-13 11.3742932171439 0.0
-3.5401017665830984e-15 12.287254842343442 0.0
-3.3091157833202815e-13 12.800577043941429 0.0
8.473567259210358e-13 13.140403357998704 0.0
-2.1150945442556835e-13 13.04442802531011 0.0
-5.830813239213257e-14 13.20558558974607 0.0
-3.873122030105445e-14 13.236209815412773 0.0
-1.0842415467138056e-13 13.359031523502104 0.0
VECTORS boundary_conditions double
1.0 1.0 0.0
1.0 1.0 0.0
1.0 0.0 0.0
1.0 0.0 0.0
0.0 1.0 0.0
1.0 0.0 0.0
1.0 0.0 0.0
1.0 0.0 0.0
1.0 0.0 0.0
1.0 0.0 0.0
1.0 0.0 0.0
1.0 0.0 0.0
1.0 0.0 0.0
1.0 0.0 0.0
1.0 0.0 0.0
1.0 0.0 0.0
1.0 0.0 0.0
1.0 0.0 0.0
1.0 0.0 0.0
1.0 0.0 0.0
1.0 0.0 0.0
1.0 0.0 0.0
1.0 0.0 0.0
1.0 0.0 0.0
0.0 0.0 0.0
1.0 0.0 0.0
1.0 0.0 0.0
1.0 0.0 0.0
1.0 0.0 0.0
1.0 0.0 0.0
1.0 0.0 0.0
1.0 0.0 0.0
1.0 0.0 0.0
1.0 0.0 0.0
1.0 0.0 0.0
1.0 0.0 0.0
1.0 0.0 0.0
1.0 0.0 0.0
1.0 0.0 0.0
1.0 0.0 0.0
1.0 0.0 0.0
1.0 0.0 0.0
1.0 0.0 0.0
1.0 0.0 0.0
0.0 0.0 0.0
0.0 0.0 0.0
0.0 0.0 0.0
0.0 0.0 0.0
0.0 0.0 0.0
0.0 0.0 0.0
0.0 0.0 0.0
0.0 0.0 0.0
0.0 0.0 0.0
0.0 0.0 0.0
0.0 0.0 0.0
0.0 0.0 0.0
0.0 0.0 0.0
0.0 0.0 0.0
0.0 0.0 0.0
0.0 0.0 0.0
0.0 0.0 0.0
0.0 0.0 0.0
0.0 0.0 0.0
CELL_DATA 40
SCALARS material_index double
LOOKUP_TABLE default
1.0
1.0
1.0
1.0
1.0
1.0
1.0
1.0
1.0
1.0
1.0
1.0
1.0
1.0
1.0
1.0
1.0
1.0
1.0
1.0
1.0
1.0
1.0
1.0
1.0
1.0
1.0
1.0
1.0
1.0
1.0
1.0
1.0
1.0
1.0
1.0
1.0
1.0
1.0
1.0
SCALARS material_prop_density double
LOOKUP_TABLE default
1500.0
1500.0
1500.0
1500.0
1500.0
1500.0
1500.0
1500.0
1500.0
1500.0
1500.0
1500.0
1500.0
1500.0
1500.0
1500.0
1500.0
1500.0
1500.0
1500.0
1500.0
1500.0
1500.0
1500.0
1500.0
1500.0
1500.0
1500.0
1500.0
1500.0
1500.0
1500.0
1500.0
1500.0
1500.0
1500.0
1500.0
1500.0
1500.0
1500.0
SCALARS material_prop_Young double
LOOKUP_TABLE default
30000000.0
30000000.0
30000000.0
30000000.0
30000000.0
30000000.0
30000000.0
30000000.0
30000000.0
30000000.0
30000000.0
30000000.0
30000000.0
30000000.0
30000000.0
30000000.0
30000000.0
30000000.0
30000000.0
30000000.0
30000000.0
30000000.0
30000000.0
30000000.0
30000000.0
30000000.0
30000000.0
30000000.0
30000000.0
30000000.0
30000000.0
30000000.0
30000000.0
30000000.0
30000000.0
30000000.0
30000000.0
30000000.0
30000000.0
30000000.0
SCALARS material_prop_poisson double
LOOKUP_TABLE default
0.2
0.2
0.2
0.2
0.2
0.2
0.2
0.2
0.2
0.2
0.2
0.2
0.2
0.2
0.2
0.2
0.2
0.2
0.2
0.2
0.2
0.2
0.2
0.2
0.2
0.2
0.2
0.2
0.2
0.2
0.2
0.2
0.2
0.2
0.2
0.2
0.2
0.2
0.2
0.2
