# vtk DataFile Version 2.0
data_157
ASCII
DATASET UNSTRUCTURED_GRID
POINTS 63 float
0.0 0.0 0.0
1.0 0.0 0.0
1.0 10.0 0.0
0.0 10.0 0.0
0.4999999999986921 0.0 0.0
1.0 0.499999999999551 0.0
1.0 0.9999999999991888 0.0
1.0 1.499999999998284 0.0
1.0 1.999999999996824 0.0
1.0 2.499999999995364 0.0
1.0 2.999999999993903 0.0
1.0 3.499999999992442 0.0
1.0 3.999999999991017 0.0
1.0 4.499999999991639 0.0
1.0 4.999999999992399 0.0
1.0 5.499999999993159 0.0
1.0 5.99999999999392 0.0
1.0 6.499999999994679 0.0
1.0 6.999999999995438 0.0
1.0 7.499999999996199 0.0
1.0 7.99999999999696 0.0
1.0 8.49999999999772 0.0
1.0 8.99999999999848 0.0
1.0 9.49999999999924 0.0
0.5000000000020595 10.0 0.0
0.0 9.5 0.0
0.0 8.999999999999998 0.0
0.0 8.499999999999998 0.0
0.0 7.999999999999996 0.0
0.0 7.499999999999995 0.0
0.0 6.999999999999995 0.0
0.0 6.499999999999996 0.0
0.0 5.999999999999996 0.0
0.0 5.499999999999996 0.0
0.0 4.999999999999996 0.0
0.0 4.499999999999997 0.0
0.0 3.999999999999996 0.0
0.0 3.499999999999997 0.0
0.0 2.999999999999998 0.0
0.0 2.499999999999998 0.0
0.0 1.999999999999998 0.0
0.0 1.5 0.0
0.0 0.9999999999999982 0.0
0.0 0.5 0.0
0.4999999999988605 0.4999999999997756 0.0
0.4999999999990288 0.9999999999995937 0.0
0.4999999999991972 1.499999999999142 0.0
0.4999999999993656 1.999999999998411 0.0
0.499999999999534 2.499999999997681 0.0
0.4999999999997023 2.999999999996951 0.0
0.4999999999998707 3.49999999999622 0.0
0.5000000000000391 3.999999999995507 0.0
0.5000000000002074 4.499999999995817 0.0
0.5000000000003758 4.999999999996198 0.0
0.5000000000005441 5.499999999996577 0.0
0.5000000000007125 5.999999999996958 0.0
0.500000000000881 6.499999999997339 0.0
0.5000000000010493 6.999999999997716 0.0
0.5000000000012177 7.499999999998098 0.0
0.500000000001386 7.999999999998479 0.0
0.5000000000015543 8.499999999998856 0.0
0.5000000000017226 8.99999999999924 0.0
0.5000000000018909 9.49999999999962 0.0
CELLS 40 200
4 0 4 44 43
4 43 44 45 42
4 42 45 46 41
4 41 46 47 40
4 40 47 48 39
4 39 48 49 38
4 38 49 50 37
4 37 50 51 36
4 36 51 52 35
4 35 52 53 34
4 34 53 54 33
4 33 54 55 32
4 32 55 56 31
4 31 56 57 30
4 30 57 58 29
4 29 58 59 28
4 28 59 60 27
4 27 60 61 26
4 26 61 62 25
4 25 62 24 3
4 4 1 5 44
4 44 5 6 45
4 45 6 7 46
4 46 7 8 47
4 47 8 9 48
4 48 9 10 49
4 49 10 11 50
4 50 11 12 51
4 51 12 13 52
4 52 13 14 53
4 53 14 15 54
4 54 15 16 55
4 55 16 17 56
4 56 17 18 57
4 57 18 19 58
4 58 19 20 59
4 59 20 21 60
4 60 21 22 61
4 61 22 23 62
4 62 23 2 24
CELL_TYPES 40
9
9
9
9
9
9
9
9
9
9
9
9
9
9
9
9
9
9
9
9
9
9
9
9
9
9
9
9
9
9
9
9
9
9
9
9
9
9
9
9
POINT_DATA 63
VECTORS displacement double
0.0 0.0 0.0
0.0 0.0 0.0
0.0 -0.4416258635330196 0.0
0.0 -0.44162586353255895 0.0
-2.650045738582626e-16 0.0 0.0
0.0 0.013253452748597568 0.0
0.0 0.024768995298140847 0.0
0.0 0.032960111689486885 0.0
0.0 0.03642609583435694 0.0
0.0 0.034205943856964245 0.0
0.0 0.025931361283717834 0.0
0.0 0.011904921340187356 0.0
0.0 -0.007002241292813912 0.0
0.0 -0.029658396408849153 0.0
0.0 -0.05491510407505059 0.0
0.0 -0.08209480665428853 0.0
0.0 -0.11109904590702785 0.0
0.0 -0.14226408280046793 0.0
0.0 -0.17597860276305205 0.0
0.0 -0.21238159491279227 0.0
0.0 -0.2514049585715979 0.0
0.0 -0.2925728507839277 0.0
0.0 -0.33526959282249913 0.0
0.0 -0.3798487073053273 0.0
3.8205245359036384e-14 -0.4054518541820448 0.0
0.0 -0.379848707305295 0.0
0.0 -0.3352695928226177 0.0
0.0 -0.2925728507841203 0.0
0.0 -0.25140495857184486 0.0
0.0 -0.21238159491307992 0.0
0.0 -0.1759786027633715 0.0
0.0 -0.14226408280081332 0.0
0.0 -0.11109904590739345 0.0
0.0 -0.08209480665467266 0.0
0.0 -0.05491510407545092 0.0
0.0 -0.029658396409253333 0.0
0.0 -0.0070022412931906655 0.0
0.0 0.011904921339936954 0.0
0.0 0.02593136128358199 0.0
0.0 0.03420594385691874 0.0
0.0 0.036426095834364666 0.0
0.0 0.032960111689508374 0.0
0.0 0.02476899529815593 0.0
0.0 0.013253452748608273 0.0
2.562477491577219e-16 0.013266102355793384 0.0
4.508283755179443e-16 0.02479593917450046 0.0
-3.668449167310563e-18 0.03297629071748936 0.0
-2.886177033477676e-16 0.0364406563395874 0.0
3.6702404424861705e-16 0.03419707646438733 0.0
-7.601266161930326e-17 0.0259183916625525 0.0
-6.908973362462617e-16 0.011890384269429677 0.0
-3.4082308306279415e-16 -0.0070110266328128916 0.0
2.0102275882852389e-16 -0.02965667726940184 0.0
3.773722429291162e-17 -0.0549206436319836 0.0
4.774362187050466e-17 -0.08211082394323845 0.0
2.698606223367106e-16 -0.11111506102232499 0.0
3.390595429279507e-16 -0.14227706405391016 0.0
1.8078472625922392e-16 -0.17597041199440117 0.0
1.492688384029914e-16 -0.21237027694738392 0.0
9.201035044758696e-17 -0.2514191036662378 0.0
-1.609605798242269e-15 -0.2925710479421972 0.0
-7.0814534982228306e-15 -0.33516543349624744 0.0
-3.819776435426006e-14 -0.37802846046090155 0.0
VECTORS velocity double
0.0 0.0 0.0
0.0 0.0 0.0
0.0 11.262471905735296 0.0
0.0 11.262471905737268 0.0
2.870340536206664e-13 0.0 0.0
0.0 -0.2601133966034929 0.0
0.0 -0.3628972557429161 0.0
0.0 -0.22603437970550777 0.0
0.0 0.21880107856273767 0.0
0.0 0.8427662227180654 0.0
0.0 1.6022916326168435 0.0
0.0 2.512163156188694 0.0
0.0 3.590620775269505 0.0
0.0 4.825416680801679 0.0
0.0 6.240425761816844 0.0
0.0 7.746122470463991 0.0
0.0 9.202775502885002 0.0
0.0 10.48097693261656 0.0
0.0 11.422298776987638 0.0
0.0 11.959386274223576 0.0
0.0 12.106055851564767 0.0
0.0 11.955927082370511 0.0
0.0 11.641670836736655 0.0
0.0 11.357532198610095 0.0
6.579002927359529e-13 11.269730410606513 0.0
0.0 11.357532198611327 0.0
0.0 11.641670836736711 0.0
0.0 11.955927082370266 0.0
0.0 12.106055851565323 0.0
0.0 11.959386274226357 0.0
0.0 11.422298776995536 0.0
0.0 10.480976932629998 0.0
0.0 9.202775502902973 0.0
0.0 7.746122470484757 0.0
0.0 6.240425761839898 0.0
0.0 4.82541668082389 0.0
0.0 3.590620775289988 0.0
0.0 2.5121631562031546 0.0
0.0 1.6022916326266952 0.0
0.0 0.8427662227239532 0.0
0.0 0.2188010785665142 0.0
0.0 -0.226034379704674 0.0
0.0 -0.3628972557430933 0.0
0.0 -0.2601133966041469 0.0
2.72870314292661e-13 -0.25995413978985565 0.0
-3.152422530198562e-13 -0.3637551679235863 0.0
-2.3670832357020675e-13 -0.22241258721741786 0.0
1.403046713384636e-13 0.2179305427662399 0.0
-2.736776086892876e-14 0.8444719061317798 0.0
-1.0513262558581446e-13 1.5924051726684487 0.0
1.5273229417123457e-14 2.5012770562794753 0.0
4.657577502371967e-14 3.580962713903805 0.0
-4.5096326396126753e-14 4.819232854880754 0.0
4.0498224527821476e-13 6.255263888905347 0.0
-1.0486142376227648e-13 7.751595953063244 0.0
-2.7492590845482713e-13 9.213457328865555 0.0
-1.6116291060219035e-13 10.478743241270616 0.0
1.308623307313371e-13 11.422273675127666 0.0
6.449864245857933e-14 11.975960936329177 0.0
-5.464670077971934e-13 12.12275991752572 0.0
1.2098377933118677e-14 11.951205762544603 0.0
4.132467091332064e-14 11.650335938418866 0.0
3.5546479125851263e-13 11.366785908846605 0.0
VECTORS boundary_conditions double
1.0 1.0 0.0
1.0 1.0 0.0
1.0 0.0 0.0
1.0 0.0 0.0
0.0 1.0 0.0
1.0 0.0 0.0
1.0 0.0 0.0
1.0 0.0 0.0
1.0 0.0 0.0
1.0 0.0 0.0
1.0 0.0 0.0
1.0 0.0 0.0
1.0 0.0 0.0
1.0 0.0 0.0
1.0 0.0 0.0
1.0 0.0 0.0
1.0 0.0 0.0
1.0 0.0 0.0
1.0 0.0 0.0
1.0 0.0 0.0
1.0 0.0 0.0
1.0 0.0 0.0
1.0 0.0 0.0
1.0 0.0 0.0
0.0 0.0 0.0
1.0 0.0 0.0
1.0 0.0 0.0
1.0 0.0 0.0
1.0 0.0 0.0
1.0 0.0 0.0
1.0 0.0 0.0
1.0 0.0 0.0
1.0 0.0 0.0
1.0 0.0 0.0
1.0 0.0 0.0
1.0 0.0 0.0
1.0 0.0 0.0
1.0 0.0 0.0
1.0 0.0 0.0
1.0 0.0 0.0
1.0 0.0 0.0
1.0 0.0 0.0
1.0 0.0 0.0
1.0 0.0 0.0
0.0 0.0 0.0
0.0 0.0 0.0
0.0 0.0 0.0
0.0 0.0 0.0
0.0 0.0 0.0
0.0 0.0 0.0
0.0 0.0 0.0
0.0 0.0 0.0
0.0 0.0 0.0
0.0 0.0 0.0
0.0 0.0 0.0
0.0 0.0 0.0
0.0 0.0 0.0
0.0 0.0 0.0
0.0 0.0 0.0
0.0 0.0 0.0
0.0 0.0 0.0
0.0 0.0 0.0
0.0 0.0 0.0
CELL_DATA 40
SCALARS material_index double
LOOKUP_TABLE default
1.0
1.0
1.0
1.0
1.0
1.0
1.0
1.0
1.0
1.0
1.0
1.0
1.0
1.0
1.0
1.0
1.0
1.0
1.0
1.0
1.0
1.0
1.0
1.0
1.0
1.0
1.0
1.0
1.0
1.0
1.0
1.0
1.0
1.0
1.0
1.0
1.0
1.0
1.0
1.0
SCALARS material_prop_density double
LOOKUP_TABLE default
1500.0
1500.0
1500.0
1500.0
1500.0
1500.0
1500.0
1500.0
1500.0
1500.0
1500.0
1500.0
1500.0
1500.0
1500.0
1500.0
1500.0
1500.0
1500.0
1500.0
1500.0
1500.0
1500.0
1500.0
1500.0
1500.0
1500.0
1500.0
1500.0
1500.0
1500.0
1500.0
1500.0
1500.0
1500.0
1500.0
1500.0
1500.0
1500.0
1500.0
SCALARS material_prop_Young double
LOOKUP_TABLE default
30000000.0
30000000.0
30000000.0
30000000.0
30000000.0
30000000.0
30000000.0
30000000.0
30000000.0
30000000.0
30000000.0
30000000.0
30000000.0
30000000.0
30000000.0
30000000.0
30000000.0
30000000.0
30000000.0
30000000.0
30000000.0
30000000.0
30000000.0
30000000.0
30000000.0
30000000.0
30000000.0
30000000.0
30000000.0
30000000.0
30000000.0
30000000.0
30000000.0
30000000.0
30000000.0
30000000.0
30000000.0
30000000.0
30000000.0
30000000.0
SCALARS material_prop_poisson double
LOOKUP_TABLE default
0.2
0.2
0.2
0.2
0.2
0.2
0.2
0.2
0.2
0.2
0.2
0.2
0.2
0.2
0.2
0.2
0.2
0.2
0.2
0.2
0.2
0.2
0.2
0.2
0.2
0.2
0.2
0.2
0.2
0.2
0.2
0.2
0.2
0.2
0.2
0.2
0.2
0.2
0.2
0.2
