# vtk DataFile Version 2.0
data_169
ASCII
DATASET UNSTRUCTURED_GRID
POINTS 63 float
0.0 0.0 0.0
1.0 0.0 0.0
1.0 10.0 0.0
0.0 10.0 0.0
0.4999999999986921 0.0 0.0
1.0 0.499999999999551 0.0
1.0 0.9999999999991888 0.0
1.0 1.499999999998284 0.0
1.0 1.999999999996824 0.0
1.0 2.499999999995364 0.0
1.0 2.999999999993903 0.0
1.0 3.499999999992442 0.0
1.0 3.999999999991017 0.0
1.0 4.499999999991639 0.0
1.0 4.999999999992399 0.0
1.0 5.499999999993159 0.0
1.0 5.99999999999392 0.0
1.0 6.499999999994679 0.0
1.0 6.999999999995438 0.0
1.0 7.499999999996199 0.0
1.0 7.99999999999696 0.0
1.0 8.49999999999772 0.0
1.0 8.99999999999848 0.0
1.0 9.49999999999924 0.0
0.5000000000020595 10.0 0.0
0.0 9.5 0.0
0.0 8.999999999999998 0.0
0.0 8.499999999999998 0.0
0.0 7.999999999999996 0.0
0.0 7.499999999999995 0.0
0.0 6.999999999999995 0.0
0.0 6.499999999999996 0.0
0.0 5.999999999999996 0.0
0.0 5.499999999999996 0.0
0.0 4.999999999999996 0.0
0.0 4.499999999999997 0.0
0.0 3.999999999999996 0.0
0.0 3.499999999999997 0.0
0.0 2.999999999999998 0.0
0.0 2.499999999999998 0.0
0.0 1.999999999999998 0.0
0.0 1.5 0.0
0.0 0.9999999999999982 0.0
0.0 0.5 0.0
0.4999999999988605 0.4999999999997756 0.0
0.4999999999990288 0.9999999999995937 0.0
0.4999999999991972 1.499999999999142 0.0
0.4999999999993656 1.999999999998411 0.0
0.499999999999534 2.499999999997681 0.0
0.4999999999997023 2.999999999996951 0.0
0.4999999999998707 3.49999999999622 0.0
0.5000000000000391 3.999999999995507 0.0
0.5000000000002074 4.499999999995817 0.0
0.5000000000003758 4.999999999996198 0.0
0.5000000000005441 5.499999999996577 0.0
0.5000000000007125 5.999999999996958 0.0
0.500000000000881 6.499999999997339 0.0
0.5000000000010493 6.999999999997716 0.0
0.5000000000012177 7.499999999998098 0.0
0.500000000001386 7.999999999998479 0.0
0.5000000000015543 8.499999999998856 0.0
0.5000000000017226 8.99999999999924 0.0
0.5000000000018909 9.49999999999962 0.0
CELLS 40 200
4 0 4 44 43
4 43 44 45 42
4 42 45 46 41
4 41 46 47 40
4 40 47 48 39
4 39 48 49 38
4 38 49 50 37
4 37 50 51 36
4 36 51 52 35
4 35 52 53 34
4 34 53 54 33
4 33 54 55 32
4 32 55 56 31
4 31 56 57 30
4 30 57 58 29
4 29 58 59 28
4 28 59 60 27
4 27 60 61 26
4 26 61 62 25
4 25 62 24 3
4 4 1 5 44
4 44 5 6 45
4 45 6 7 46
4 46 7 8 47
4 47 8 9 48
4 48 9 10 49
4 49 10 11 50
4 50 11 12 51
4 51 12 13 52
4 52 13 14 53
4 53 14 15 54
4 54 15 16 55
4 55 16 17 56
4 56 17 18 57
4 57 18 19 58
4 58 19 20 59
4 59 20 21 60
4 60 21 22 61
4 61 22 23 62
4 62 23 2 24
CELL_TYPES 40
9
9
9
9
9
9
9
9
9
9
9
9
9
9
9
9
9
9
9
9
9
9
9
9
9
9
9
9
9
9
9
9
9
9
9
9
9
9
9
9
POINT_DATA 63
VECTORS displacement double
0.0 0.0 0.0
0.0 0.0 0.0
0.0 -0.3795919765420911 0.0
0.0 -0.3795919765416259 0.0
3.5557183970893315e-16 0.0 0.0
0.0 -0.0029424604331938376 0.0
0.0 -0.005663650455375574 0.0
0.0 -0.0082384366898248 0.0
0.0 -0.010987901524541687 0.0
0.0 -0.014498420645064956 0.0
0.0 -0.01956306411929906 0.0
0.0 -0.02684822570386079 0.0
0.0 -0.036858809244579745 0.0
0.0 -0.04983760235434383 0.0
0.0 -0.06594363431549989 0.0
0.0 -0.08510656651557211 0.0
0.0 -0.10698079866495697 0.0
0.0 -0.13114880891343642 0.0
0.0 -0.15719190752790563 0.0
0.0 -0.18488266956148458 0.0
0.0 -0.2143100644265924 0.0
0.0 -0.24592280794415844 0.0
0.0 -0.28050227557186863 0.0
0.0 -0.31969381023824517 0.0
3.851297524665503e-14 -0.3434086461598733 0.0
0.0 -0.31969381023820304 0.0
0.0 -0.2805022755719608 0.0
0.0 -0.2459228079443048 0.0
0.0 -0.214310064426777 0.0
0.0 -0.18488266956170193 0.0
0.0 -0.1571919075281514 0.0
0.0 -0.1311488089137044 0.0
0.0 -0.1069807986652392 0.0
0.0 -0.08510656651585577 0.0
0.0 -0.06594363431576901 0.0
0.0 -0.04983760235458571 0.0
0.0 -0.03685880924478409 0.0
0.0 -0.02684822570398912 0.0
0.0 -0.019563064119371892 0.0
0.0 -0.014498420645101385 0.0
0.0 -0.010987901524558627 0.0
0.0 -0.008238436689832311 0.0
0.0 -0.00566365045538004 0.0
0.0 -0.0029424604331978054 0.0
-5.861141563877427e-17 -0.002933416653203525 0.0
-4.991909499114158e-16 -0.005649019034533681 0.0
-2.6770983686313266e-17 -0.008225096198958193 0.0
-1.7294807628342234e-17 -0.010978896121460713 0.0
3.2089596706891314e-16 -0.014499263873489841 0.0
2.6147228460987265e-16 -0.019566217305179615 0.0
8.534059699330483e-17 -0.026854038084905 0.0
-4.499856515145872e-16 -0.036859058350002895 0.0
1.1161812318308252e-16 -0.049834357375353536 0.0
3.2477184792618005e-16 -0.06594663950770058 0.0
-1.088760201870398e-16 -0.08511187012709129 0.0
-5.530715368176455e-16 -0.10700161552603878 0.0
-1.3969119811879188e-16 -0.1311610396191609 0.0
1.8127621332335686e-16 -0.15719878784955235 0.0
2.3378828113928447e-16 -0.18488437292788176 0.0
-2.252432993031899e-16 -0.21431170685000336 0.0
-9.918655263841964e-16 -0.2459281065652708 0.0
-6.715735511905315e-15 -0.28042758854155647 0.0
-3.812898912135718e-14 -0.3178821006500886 0.0
VECTORS velocity double
0.0 0.0 0.0
0.0 0.0 0.0
0.0 -16.32510619462367 0.0
0.0 -16.325106194624777 0.0
-2.0431587921643642e-13 0.0 0.0
0.0 -0.7502689021826869 0.0
0.0 -1.3752806482378555 0.0
0.0 -1.743371578851336 0.0
0.0 -1.8215316413227653 0.0
0.0 -1.637524966162331 0.0
0.0 -1.3574191375351 0.0
0.0 -1.1583942295440723 0.0
0.0 -1.2707668190283543 0.0
0.0 -1.8268515150670264 0.0
0.0 -2.8171833131915154 0.0
0.0 -4.12618603997705 0.0
0.0 -5.6395980994444415 0.0
0.0 -7.22990554219255 0.0
0.0 -8.862679745989112 0.0
0.0 -10.561060419483637 0.0
0.0 -12.257931892998442 0.0
0.0 -13.827391373004525 0.0
0.0 -15.127121916137884 0.0
0.0 -16.00103485415595 0.0
-4.758317312761585e-13 -16.306443033806968 0.0
0.0 -16.001034854157734 0.0
0.0 -15.1271219161424 0.0
0.0 -13.827391373012333 0.0
0.0 -12.257931893009342 0.0
0.0 -10.561060419497377 0.0
0.0 -8.862679746005082 0.0
0.0 -7.229905542210193 0.0
0.0 -5.639598099463765 0.0
0.0 -4.126186039996686 0.0
0.0 -2.8171833132099344 0.0
0.0 -1.826851515080639 0.0
0.0 -1.2707668190344097 0.0
0.0 -1.1583942295425311 0.0
0.0 -1.3574191375317715 0.0
0.0 -1.6375249661593159 0.0
0.0 -1.8215316413219123 0.0
0.0 -1.7433715788523956 0.0
0.0 -1.375280648239629 0.0
0.0 -0.750268902183288 0.0
-7.368884075058187e-15 -0.748980971817208 0.0
1.6869708709952974e-13 -1.367289063240809 0.0
-2.387801411758984e-13 -1.7410656430553224 0.0
1.4962058353178292e-13 -1.8130623924002065 0.0
2.9661175611916005e-13 -1.6407192769687506 0.0
-8.396493517719925e-14 -1.3606237369583574 0.0
-8.699785030372479e-14 -1.1697419343847448 0.0
-2.869409752357114e-14 -1.2823922555031098 0.0
8.147093478573928e-14 -1.8320217536342736 0.0
-3.866656096635064e-13 -2.8184202372017126 0.0
-5.302441112355914e-14 -4.121172753906026 0.0
1.5507524653642341e-13 -5.635725968443047 0.0
1.546675530204458e-13 -7.234270243239153 0.0
3.0334302917469127e-13 -8.864143547590505 0.0
2.981914593428796e-13 -10.56097353841533 0.0
-1.1052365713290478e-13 -12.248328138278225 0.0
-1.781256443135142e-13 -13.814053169155038 0.0
-2.5431520392978694e-13 -15.135689162625503 0.0
3.084569195691361e-14 -15.999718259069809 0.0
VECTORS boundary_conditions double
1.0 1.0 0.0
1.0 1.0 0.0
1.0 0.0 0.0
1.0 0.0 0.0
0.0 1.0 0.0
1.0 0.0 0.0
1.0 0.0 0.0
1.0 0.0 0.0
1.0 0.0 0.0
1.0 0.0 0.0
1.0 0.0 0.0
1.0 0.0 0.0
1.0 0.0 0.0
1.0 0.0 0.0
1.0 0.0 0.0
1.0 0.0 0.0
1.0 0.0 0.0
1.0 0.0 0.0
1.0 0.0 0.0
1.0 0.0 0.0
1.0 0.0 0.0
1.0 0.0 0.0
1.0 0.0 0.0
1.0 0.0 0.0
0.0 0.0 0.0
1.0 0.0 0.0
1.0 0.0 0.0
1.0 0.0 0.0
1.0 0.0 0.0
1.0 0.0 0.0
1.0 0.0 0.0
1.0 0.0 0.0
1.0 0.0 0.0
1.0 0.0 0.0
1.0 0.0 0.0
1.0 0.0 0.0
1.0 0.0 0.0
1.0 0.0 0.0
1.0 0.0 0.0
1.0 0.0 0.0
1.0 0.0 0.0
1.0 0.0 0.0
1.0 0.0 0.0
1.0 0.0 0.0
0.0 0.0 0.0
0.0 0.0 0.0
0.0 0.0 0.0
0.0 0.0 0.0
0.0 0.0 0.0
0.0 0.0 0.0
0.0 0.0 0.0
0.0 0.0 0.0
0.0 0.0 0.0
0.0 0.0 0.0
0.0 0.0 0.0
0.0 0.0 0.0
0.0 0.0 0.0
0.0 0.0 0.0
0.0 0.0 0.0
0.0 0.0 0.0
0.0 0.0 0.0
0.0 0.0 0.0
0.0 0.0 0.0
CELL_DATA 40
SCALARS material_index double
LOOKUP_TABLE default
1.0
1.0
1.0
1.0
1.0
1.0
1.0
1.0
1.0
1.0
1.0
1.0
1.0
1.0
1.0
1.0
1.0
1.0
1.0
1.0
1.0
1.0
1.0
1.0
1.0
1.0
1.0
1.0
1.0
1.0
1.0
1.0
1.0
1.0
1.0
1.0
1.0
1.0
1.0
1.0
SCALARS material_prop_density double
LOOKUP_TABLE default
1500.0
1500.0
1500.0
1500.0
1500.0
1500.0
1500.0
1500.0
1500.0
1500.0
1500.0
1500.0
1500.0
1500.0
1500.0
1500.0
1500.0
1500.0
1500.0
1500.0
1500.0
1500.0
1500.0
1500.0
1500.0
1500.0
1500.0
1500.0
1500.0
1500.0
1500.0
1500.0
1500.0
1500.0
1500.0
1500.0
1500.0
1500.0
1500.0
1500.0
SCALARS material_prop_Young double
LOOKUP_TABLE default
30000000.0
30000000.0
30000000.0
30000000.0
30000000.0
30000000.0
30000000.0
30000000.0
30000000.0
30000000.0
30000000.0
30000000.0
30000000.0
30000000.0
30000000.0
30000000.0
30000000.0
30000000.0
30000000.0
30000000.0
30000000.0
30000000.0
30000000.0
30000000.0
30000000.0
30000000.0
30000000.0
30000000.0
30000000.0
30000000.0
30000000.0
30000000.0
30000000.0
30000000.0
30000000.0
30000000.0
30000000.0
30000000.0
30000000.0
30000000.0
SCALARS material_prop_poisson double
LOOKUP_TABLE default
0.2
0.2
0.2
0.2
0.2
0.2
0.2
0.2
0.2
0.2
0.2
0.2
0.2
0.2
0.2
0.2
0.2
0.2
0.2
0.2
0.2
0.2
0.2
0.2
0.2
0.2
0.2
0.2
0.2
0.2
0.2
0.2
0.2
0.2
0.2
0.2
0.2
0.2
0.2
0.2
