# vtk DataFile Version 2.0
data_82
ASCII
DATASET UNSTRUCTURED_GRID
POINTS 63 float
0.0 0.0 0.0
1.0 0.0 0.0
1.0 10.0 0.0
0.0 10.0 0.0
0.4999999999986921 0.0 0.0
1.0 0.499999999999551 0.0
1.0 0.9999999999991888 0.0
1.0 1.499999999998284 0.0
1.0 1.999999999996824 0.0
1.0 2.499999999995364 0.0
1.0 2.999999999993903 0.0
1.0 3.499999999992442 0.0
1.0 3.999999999991017 0.0
1.0 4.499999999991639 0.0
1.0 4.999999999992399 0.0
1.0 5.499999999993159 0.0
1.0 5.99999999999392 0.0
1.0 6.499999999994679 0.0
1.0 6.999999999995438 0.0
1.0 7.499999999996199 0.0
1.0 7.99999999999696 0.0
1.0 8.49999999999772 0.0
1.0 8.99999999999848 0.0
1.0 9.49999999999924 0.0
0.5000000000020595 10.0 0.0
0.0 9.5 0.0
0.0 8.999999999999998 0.0
0.0 8.499999999999998 0.0
0.0 7.999999999999996 0.0
0.0 7.499999999999995 0.0
0.0 6.999999999999995 0.0
0.0 6.499999999999996 0.0
0.0 5.999999999999996 0.0
0.0 5.499999999999996 0.0
0.0 4.999999999999996 0.0
0.0 4.499999999999997 0.0
0.0 3.999999999999996 0.0
0.0 3.499999999999997 0.0
0.0 2.999999999999998 0.0
0.0 2.499999999999998 0.0
0.0 1.999999999999998 0.0
0.0 1.5 0.0
0.0 0.9999999999999982 0.0
0.0 0.5 0.0
0.4999999999988605 0.4999999999997756 0.0
0.4999999999990288 0.9999999999995937 0.0
0.4999999999991972 1.499999999999142 0.0
0.4999999999993656 1.999999999998411 0.0
0.499999999999534 2.499999999997681 0.0
0.4999999999997023 2.999999999996951 0.0
0.4999999999998707 3.49999999999622 0.0
0.5000000000000391 3.999999999995507 0.0
0.5000000000002074 4.499999999995817 0.0
0.5000000000003758 4.999999999996198 0.0
0.5000000000005441 5.499999999996577 0.0
0.5000000000007125 5.999999999996958 0.0
0.500000000000881 6.499999999997339 0.0
0.5000000000010493 6.999999999997716 0.0
0.5000000000012177 7.499999999998098 0.0
0.500000000001386 7.999999999998479 0.0
0.5000000000015543 8.499999999998856 0.0
0.5000000000017226 8.99999999999924 0.0
0.5000000000018909 9.49999999999962 0.0
CELLS 40 200
4 0 4 44 43
4 43 44 45 42
4 42 45 46 41
4 41 46 47 40
4 40 47 48 39
4 39 48 49 38
4 38 49 50 37
4 37 50 51 36
4 36 51 52 35
4 35 52 53 34
4 34 53 54 33
4 33 54 55 32
4 32 55 56 31
4 31 56 57 30
4 30 57 58 29
4 29 58 59 28
4 28 59 60 27
4 27 60 61 26
4 26 61 62 25
4 25 62 24 3
4 4 1 5 44
4 44 5 6 45
4 45 6 7 46
4 46 7 8 47
4 47 8 9 48
4 48 9 10 49
4 49 10 11 50
4 50 11 12 51
4 51 12 13 52
4 52 13 14 53
4 53 14 15 54
4 54 15 16 55
4 55 16 17 56
4 56 17 18 57
4 57 18 19 58
4 58 19 20 59
4 59 20 21 60
4 60 21 22 61
4 61 22 23 62
4 62 23 2 24
CELL_TYPES 40
9
9
9
9
9
9
9
9
9
9
9
9
9
9
9
9
9
9
9
9
9
9
9
9
9
9
9
9
9
9
9
9
9
9
9
9
9
9
9
9
POINT_DATA 63
VECTORS displacement double
0.0 0.0 0.0
0.0 0.0 0.0
0.0 -1.6870782797306108 0.0
0.0 -1.6870782797301374 0.0
1.7493955179404243e-16 0.0 0.0
0.0 -0.09281962938378449 0.0
0.0 -0.1839685257955512 0.0
0.0 -0.27213907431344436 0.0
0.0 -0.3581438953962209 0.0
0.0 -0.44308927330308573 0.0
0.0 -0.5287249651729665 0.0
0.0 -0.6168090691571781 0.0
0.0 -0.708273458043576 0.0
0.0 -0.8028861209183762 0.0
0.0 -0.8990610576775098 0.0
0.0 -0.9952314334590048 0.0
0.0 -1.0901021375001274 0.0
0.0 -1.1820812670839043 0.0
0.0 -1.2701852207386268 0.0
0.0 -1.353688026520309 0.0
0.0 -1.4311713268133988 0.0
0.0 -1.5017560555540557 0.0
0.0 -1.5649218948610708 0.0
0.0 -1.6214647332939367 0.0
3.5568629197058294e-14 -1.6508917427338563 0.0
0.0 -1.6214647332939065 0.0
0.0 -1.564921894861229 0.0
0.0 -1.5017560555543519 0.0
0.0 -1.431171326813846 0.0
0.0 -1.3536880265209221 0.0
0.0 -1.2701852207394129 0.0
0.0 -1.18208126708486 0.0
0.0 -1.0901021375012672 0.0
0.0 -0.995231433460318 0.0
0.0 -0.8990610576789765 0.0
0.0 -0.8028861209199748 0.0
0.0 -0.7082734580452491 0.0
0.0 -0.6168090691585314 0.0
0.0 -0.5287249651740215 0.0
0.0 -0.44308927330386955 0.0
0.0 -0.3581438953967593 0.0
0.0 -0.27213907431374157 0.0
0.0 -0.1839685257956952 0.0
0.0 -0.09281962938386795 0.0
-7.2645724265176e-16 -0.09289368005181918 0.0
3.190554670886838e-16 -0.1838571275225586 0.0
-2.6565118121254714e-17 -0.27209601762563435 0.0
2.890920103364078e-16 -0.35825586098106327 0.0
-6.651762967323598e-16 -0.44313410247912155 0.0
5.705074852173833e-16 -0.5287511217597932 0.0
6.275924860956949e-16 -0.6167335471589844 0.0
-1.4642244722741747e-15 -0.7081759445795628 0.0
6.378568203764319e-16 -0.8028538776758749 0.0
7.952995751307519e-16 -0.8990382799404363 0.0
3.500850158102728e-16 -0.9953109028516437 0.0
-9.296505322066149e-16 -1.0901600199808033 0.0
-1.280224822854799e-16 -1.1821864358396401 0.0
3.3415338160284274e-16 -1.270246535273185 0.0
-7.343463610112968e-16 -1.353752838499265 0.0
1.5878751733924493e-17 -1.4312010563937676 0.0
-8.31180631440063e-16 -1.5017703174598207 0.0
-5.131335429963409e-15 -1.5648348331418775 0.0
-3.977959471102632e-14 -1.6196449384707776 0.0
VECTORS velocity double
0.0 0.0 0.0
0.0 0.0 0.0
0.0 -4.901749684559679 0.0
0.0 -4.901749684563015 0.0
2.008129465918798e-13 0.0 0.0
0.0 -0.4779016855336904 0.0
0.0 -0.6727518952018783 0.0
0.0 -0.7096326719706862 0.0
0.0 -0.7417890166316248 0.0
0.0 -0.6217701894094523 0.0
0.0 -0.2545140478269161 0.0
0.0 0.1962811253416863 0.0
0.0 0.7846216934963337 0.0
0.0 1.5200763096091077 0.0
0.0 2.0638549978802008 0.0
0.0 2.3328030069207717 0.0
0.0 2.0527623963034323 0.0
0.0 1.3581524656274677 0.0
0.0 0.23838946407683892 0.0
0.0 -1.1163584246498033 0.0
0.0 -2.3977664994067247 0.0
0.0 -3.3841615295671836 0.0
0.0 -4.309481484974183 0.0
0.0 -4.79258857113355 0.0
-1.1236884276537644e-12 -4.8200807365826535 0.0
0.0 -4.792588571135141 0.0
0.0 -4.309481484975242 0.0
0.0 -3.384161529571026 0.0
0.0 -2.3977664994142227 0.0
0.0 -1.116358424660179 0.0
0.0 0.2383894640651807 0.0
0.0 1.3581524656171489 0.0
0.0 2.052762396297563 0.0
0.0 2.332803006921287 0.0
0.0 2.063854997884942 0.0
0.0 1.5200763096195224 0.0
0.0 0.7846216935099797 0.0
0.0 0.19628112534708286 0.0
0.0 -0.25451404782167053 0.0
0.0 -0.6217701894063854 0.0
0.0 -0.7417890166309311 0.0
0.0 -0.7096326719703443 0.0
0.0 -0.6727518952005851 0.0
0.0 -0.477901685534023 0.0
-6.229666830944957e-13 -0.3700378141293401 0.0
7.165776981292224e-13 -0.6607120194659548 0.0
-3.1113492626846206e-13 -0.8297858668792415 0.0
-4.864202272860019e-13 -0.743583311377729 0.0
5.405336139056544e-13 -0.5838732286111767 0.0
-6.0292773731146466e-15 -0.21819606527673763 0.0
7.200679356017634e-13 0.26826702324513896 0.0
-1.053067574796406e-12 0.7403247562262578 0.0
1.3501132352326608e-12 1.4955669812711943 0.0
-9.816539425029227e-13 1.994334000482075 0.0
-3.9999153908030036e-13 2.288122783448335 0.0
4.533695656929464e-13 2.044432025630538 0.0
6.399584689879663e-14 1.3482932321792624 0.0
-2.390579947901767e-13 0.29048842414355214 0.0
-1.6301294509833738e-13 -1.0985821808516771 0.0
1.2431066545563602e-12 -2.319711241190216 0.0
-4.855129354942306e-13 -3.357718017860746 0.0
-1.1515777115173015e-12 -4.227193246146154 0.0
8.414649745668427e-14 -4.765821269241087 0.0
VECTORS boundary_conditions double
1.0 1.0 0.0
1.0 1.0 0.0
1.0 0.0 0.0
1.0 0.0 0.0
0.0 1.0 0.0
1.0 0.0 0.0
1.0 0.0 0.0
1.0 0.0 0.0
1.0 0.0 0.0
1.0 0.0 0.0
1.0 0.0 0.0
1.0 0.0 0.0
1.0 0.0 0.0
1.0 0.0 0.0
1.0 0.0 0.0
1.0 0.0 0.0
1.0 0.0 0.0
1.0 0.0 0.0
1.0 0.0 0.0
1.0 0.0 0.0
1.0 0.0 0.0
1.0 0.0 0.0
1.0 0.0 0.0
1.0 0.0 0.0
0.0 0.0 0.0
1.0 0.0 0.0
1.0 0.0 0.0
1.0 0.0 0.0
1.0 0.0 0.0
1.0 0.0 0.0
1.0 0.0 0.0
1.0 0.0 0.0
1.0 0.0 0.0
1.0 0.0 0.0
1.0 0.0 0.0
1.0 0.0 0.0
1.0 0.0 0.0
1.0 0.0 0.0
1.0 0.0 0.0
1.0 0.0 0.0
1.0 0.0 0.0
1.0 0.0 0.0
1.0 0.0 0.0
1.0 0.0 0.0
0.0 0.0 0.0
0.0 0.0 0.0
0.0 0.0 0.0
0.0 0.0 0.0
0.0 0.0 0.0
0.0 0.0 0.0
0.0 0.0 0.0
0.0 0.0 0.0
0.0 0.0 0.0
0.0 0.0 0.0
0.0 0.0 0.0
0.0 0.0 0.0
0.0 0.0 0.0
0.0 0.0 0.0
0.0 0.0 0.0
0.0 0.0 0.0
0.0 0.0 0.0
0.0 0.0 0.0
0.0 0.0 0.0
CELL_DATA 40
SCALARS material_index double
LOOKUP_TABLE default
1.0
1.0
1.0
1.0
1.0
1.0
1.0
1.0
1.0
1.0
1.0
1.0
1.0
1.0
1.0
1.0
1.0
1.0
1.0
1.0
1.0
1.0
1.0
1.0
1.0
1.0
1.0
1.0
1.0
1.0
1.0
1.0
1.0
1.0
1.0
1.0
1.0
1.0
1.0
1.0
SCALARS material_prop_density double
LOOKUP_TABLE default
1500.0
1500.0
1500.0
1500.0
1500.0
1500.0
1500.0
1500.0
1500.0
1500.0
1500.0
1500.0
1500.0
1500.0
1500.0
1500.0
1500.0
1500.0
1500.0
1500.0
1500.0
1500.0
1500.0
1500.0
1500.0
1500.0
1500.0
1500.0
1500.0
1500.0
1500.0
1500.0
1500.0
1500.0
1500.0
1500.0
1500.0
1500.0
1500.0
1500.0
SCALARS material_prop_Young double
LOOKUP_TABLE default
30000000.0
30000000.0
30000000.0
30000000.0
30000000.0
30000000.0
30000000.0
30000000.0
30000000.0
30000000.0
30000000.0
30000000.0
30000000.0
30000000.0
30000000.0
30000000.0
30000000.0
30000000.0
30000000.0
30000000.0
30000000.0
30000000.0
30000000.0
30000000.0
30000000.0
30000000.0
30000000.0
30000000.0
30000000.0
30000000.0
30000000.0
30000000.0
30000000.0
30000000.0
30000000.0
30000000.0
30000000.0
30000000.0
30000000.0
30000000.0
SCALARS material_prop_poisson double
LOOKUP_TABLE default
0.2
0.2
0.2
0.2
0.2
0.2
0.2
0.2
0.2
0.2
0.2
0.2
0.2
0.2
0.2
0.2
0.2
0.2
0.2
0.2
0.2
0.2
0.2
0.2
0.2
0.2
0.2
0.2
0.2
0.2
0.2
0.2
0.2
0.2
0.2
0.2
0.2
0.2
0.2
0.2
