# vtk DataFile Version 2.0
data_144
ASCII
DATASET UNSTRUCTURED_GRID
POINTS 63 float
0.0 0.0 0.0
1.0 0.0 0.0
1.0 10.0 0.0
0.0 10.0 0.0
0.4999999999986921 0.0 0.0
1.0 0.499999999999551 0.0
1.0 0.9999999999991888 0.0
1.0 1.499999999998284 0.0
1.0 1.999999999996824 0.0
1.0 2.499999999995364 0.0
1.0 2.999999999993903 0.0
1.0 3.499999999992442 0.0
1.0 3.999999999991017 0.0
1.0 4.499999999991639 0.0
1.0 4.999999999992399 0.0
1.0 5.499999999993159 0.0
1.0 5.99999999999392 0.0
1.0 6.499999999994679 0.0
1.0 6.999999999995438 0.0
1.0 7.499999999996199 0.0
1.0 7.99999999999696 0.0
1.0 8.49999999999772 0.0
1.0 8.99999999999848 0.0
1.0 9.49999999999924 0.0
0.5000000000020595 10.0 0.0
0.0 9.5 0.0
0.0 8.999999999999998 0.0
0.0 8.499999999999998 0.0
0.0 7.999999999999996 0.0
0.0 7.499999999999995 0.0
0.0 6.999999999999995 0.0
0.0 6.499999999999996 0.0
0.0 5.999999999999996 0.0
0.0 5.499999999999996 0.0
0.0 4.999999999999996 0.0
0.0 4.499999999999997 0.0
0.0 3.999999999999996 0.0
0.0 3.499999999999997 0.0
0.0 2.999999999999998 0.0
0.0 2.499999999999998 0.0
0.0 1.999999999999998 0.0
0.0 1.5 0.0
0.0 0.9999999999999982 0.0
0.0 0.5 0.0
0.4999999999988605 0.4999999999997756 0.0
0.4999999999990288 0.9999999999995937 0.0
0.4999999999991972 1.499999999999142 0.0
0.4999999999993656 1.999999999998411 0.0
0.499999999999534 2.499999999997681 0.0
0.4999999999997023 2.999999999996951 0.0
0.4999999999998707 3.49999999999622 0.0
0.5000000000000391 3.999999999995507 0.0
0.5000000000002074 4.499999999995817 0.0
0.5000000000003758 4.999999999996198 0.0
0.5000000000005441 5.499999999996577 0.0
0.5000000000007125 5.999999999996958 0.0
0.500000000000881 6.499999999997339 0.0
0.5000000000010493 6.999999999997716 0.0
0.5000000000012177 7.499999999998098 0.0
0.500000000001386 7.999999999998479 0.0
0.5000000000015543 8.499999999998856 0.0
0.5000000000017226 8.99999999999924 0.0
0.5000000000018909 9.49999999999962 0.0
CELLS 40 200
4 0 4 44 43
4 43 44 45 42
4 42 45 46 41
4 41 46 47 40
4 40 47 48 39
4 39 48 49 38
4 38 49 50 37
4 37 50 51 36
4 36 51 52 35
4 35 52 53 34
4 34 53 54 33
4 33 54 55 32
4 32 55 56 31
4 31 56 57 30
4 30 57 58 29
4 29 58 59 28
4 28 59 60 27
4 27 60 61 26
4 26 61 62 25
4 25 62 24 3
4 4 1 5 44
4 44 5 6 45
4 45 6 7 46
4 46 7 8 47
4 47 8 9 48
4 48 9 10 49
4 49 10 11 50
4 50 11 12 51
4 51 12 13 52
4 52 13 14 53
4 53 14 15 54
4 54 15 16 55
4 55 16 17 56
4 56 17 18 57
4 57 18 19 58
4 58 19 20 59
4 59 20 21 60
4 60 21 22 61
4 61 22 23 62
4 62 23 2 24
CELL_TYPES 40
9
9
9
9
9
9
9
9
9
9
9
9
9
9
9
9
9
9
9
9
9
9
9
9
9
9
9
9
9
9
9
9
9
9
9
9
9
9
9
9
POINT_DATA 63
VECTORS displacement double
0.0 0.0 0.0
0.0 0.0 0.0
0.0 -1.290995624701378 0.0
0.0 -1.290995624700908 0.0
-3.391134454816087e-16 0.0 0.0
0.0 -0.08420005726576266 0.0
0.0 -0.1684074416388227 0.0
0.0 -0.25252632721380514 0.0
0.0 -0.33620874646589466 0.0
0.0 -0.41902787281124737 0.0
0.0 -0.5004568415219344 0.0
0.0 -0.5797625159697554 0.0
0.0 -0.656228353878041 0.0
0.0 -0.7292978713924594 0.0
0.0 -0.7981708617920785 0.0
0.0 -0.8620524166032804 0.0
0.0 -0.9202871453324647 0.0
0.0 -0.9727860620943508 0.0
0.0 -1.0201568190391324 0.0
0.0 -1.0636001172632885 0.0
0.0 -1.1047511395356933 0.0
0.0 -1.145220946546519 0.0
0.0 -1.1863650720066123 0.0
0.0 -1.2296985209940805 0.0
4.030983812111735e-14 -1.2548282658697432 0.0
0.0 -1.2296985209940365 0.0
0.0 -1.186365072006718 0.0
0.0 -1.1452209465466987 0.0
0.0 -1.1047511395359355 0.0
0.0 -1.063600117263604 0.0
0.0 -1.0201568190395405 0.0
0.0 -0.9727860620948763 0.0
0.0 -0.9202871453331324 0.0
0.0 -0.8620524166041129 0.0
0.0 -0.7981708617930876 0.0
0.0 -0.7292978713936483 0.0
0.0 -0.6562283538793868 0.0
0.0 -0.5797625159709348 0.0
0.0 -0.5004568415229171 0.0
0.0 -0.4190278728120105 0.0
0.0 -0.33620874646642507 0.0
0.0 -0.2525263272140951 0.0
0.0 -0.16840744163896001 0.0
0.0 -0.08420005726583857 0.0
-1.6412242544240799e-16 -0.084205677740955 0.0
7.124571924435919e-16 -0.16840742557727423 0.0
3.6142899165845647e-16 -0.2525408336821051 0.0
-3.102980672979071e-16 -0.33620297114541287 0.0
-4.648482461822933e-16 -0.4190228915467162 0.0
-5.237869967288112e-16 -0.5004299443885393 0.0
-2.0535772695654664e-16 -0.5797350206150369 0.0
7.881208225082305e-16 -0.6562266605450895 0.0
-3.422900377366063e-16 -0.7293062590723426 0.0
-1.7891402176252263e-16 -0.7982016786671051 0.0
3.2472718755985484e-16 -0.8620634769765075 0.0
3.130181705262156e-16 -0.9202815821764831 0.0
3.333918809517706e-16 -0.9728038373358947 0.0
-3.5044247616767253e-16 -1.020193928661911 0.0
-4.08993166778835e-16 -1.063605796209758 0.0
-7.411431062293347e-16 -1.1047607707321951 0.0
-1.7013450476844438e-15 -1.1452310360642564 0.0
-7.803382169922585e-15 -1.1862908774801855 0.0
-3.7408224680534986e-14 -1.2278917959280484 0.0
VECTORS velocity double
0.0 0.0 0.0
0.0 0.0 0.0
0.0 17.009795200300736 0.0
0.0 17.009795200303078 0.0
2.3844574228099244e-13 0.0 0.0
0.0 -0.13874587045897058 0.0
0.0 -0.058728471751874345 0.0
0.0 0.4265579677866649 0.0
0.0 1.2983380748993794 0.0
0.0 2.376162022118577 0.0
0.0 3.5138495693521197 0.0
0.0 4.532705013218569 0.0
0.0 5.411918292565639 0.0
0.0 6.148689054268013 0.0
0.0 6.766432623957241 0.0
0.0 7.457297007160868 0.0
0.0 8.310775391231653 0.0
0.0 9.408687898196202 0.0
0.0 10.827385036473135 0.0
0.0 12.387114550106158 0.0
0.0 13.89520581396408 0.0
0.0 15.210920745319253 0.0
0.0 16.234137887893194 0.0
0.0 16.822095860056606 0.0
5.353909978105733e-13 17.019098253345895 0.0
0.0 16.822095860057413 0.0
0.0 16.23413788789465 0.0
0.0 15.210920745324206 0.0
0.0 13.895205813972836 0.0
0.0 12.387114550118433 0.0
0.0 10.827385036487545 0.0
0.0 9.408687898210344 0.0
0.0 8.310775391243926 0.0
0.0 7.4572970071716895 0.0
0.0 6.766432623967274 0.0
0.0 6.14868905427835 0.0
0.0 5.411918292579475 0.0
0.0 4.532705013232182 0.0
0.0 3.513849569366153 0.0
0.0 2.37616202212922 0.0
0.0 1.2983380749060514 0.0
0.0 0.4265579677888871 0.0
0.0 -0.05872847175129614 0.0
0.0 -0.1387458704598834 0.0
-1.7099616550044604e-14 -0.12590257123607063 0.0
2.4708411019403194e-14 -0.03346397390237765 0.0
-1.0421511983891562e-13 0.4400511474276323 0.0
-1.1502735429818314e-13 1.3033988266024341 0.0
-2.608079008447204e-13 2.365463719927285 0.0
6.407941682022391e-14 3.497394656871691 0.0
3.567536562858248e-13 4.525801527559036 0.0
2.272912100312501e-13 5.4134261165049296 0.0
-6.661558799971014e-14 6.1415604093895215 0.0
-1.8913562816259167e-13 6.762465184231488 0.0
8.45187098712094e-14 7.429800189734973 0.0
-3.260555446992612e-13 8.310472836292227 0.0
-1.550259492924689e-13 9.426903258866139 0.0
1.9383472946127322e-13 10.824555740514207 0.0
-2.569733945414736e-13 12.381444725491207 0.0
-5.287880880292725e-14 13.90661661697245 0.0
4.393416688285776e-13 15.221766761869066 0.0
2.016256482249274e-13 16.237488592641334 0.0
-5.040192943287356e-13 16.83069927786183 0.0
VECTORS boundary_conditions double
1.0 1.0 0.0
1.0 1.0 0.0
1.0 0.0 0.0
1.0 0.0 0.0
0.0 1.0 0.0
1.0 0.0 0.0
1.0 0.0 0.0
1.0 0.0 0.0
1.0 0.0 0.0
1.0 0.0 0.0
1.0 0.0 0.0
1.0 0.0 0.0
1.0 0.0 0.0
1.0 0.0 0.0
1.0 0.0 0.0
1.0 0.0 0.0
1.0 0.0 0.0
1.0 0.0 0.0
1.0 0.0 0.0
1.0 0.0 0.0
1.0 0.0 0.0
1.0 0.0 0.0
1.0 0.0 0.0
1.0 0.0 0.0
0.0 0.0 0.0
1.0 0.0 0.0
1.0 0.0 0.0
1.0 0.0 0.0
1.0 0.0 0.0
1.0 0.0 0.0
1.0 0.0 0.0
1.0 0.0 0.0
1.0 0.0 0.0
1.0 0.0 0.0
1.0 0.0 0.0
1.0 0.0 0.0
1.0 0.0 0.0
1.0 0.0 0.0
1.0 0.0 0.0
1.0 0.0 0.0
1.0 0.0 0.0
1.0 0.0 0.0
1.0 0.0 0.0
1.0 0.0 0.0
0.0 0.0 0.0
0.0 0.0 0.0
0.0 0.0 0.0
0.0 0.0 0.0
0.0 0.0 0.0
0.0 0.0 0.0
0.0 0.0 0.0
0.0 0.0 0.0
0.0 0.0 0.0
0.0 0.0 0.0
0.0 0.0 0.0
0.0 0.0 0.0
0.0 0.0 0.0
0.0 0.0 0.0
0.0 0.0 0.0
0.0 0.0 0.0
0.0 0.0 0.0
0.0 0.0 0.0
0.0 0.0 0.0
CELL_DATA 40
SCALARS material_index double
LOOKUP_TABLE default
1.0
1.0
1.0
1.0
1.0
1.0
1.0
1.0
1.0
1.0
1.0
1.0
1.0
1.0
1.0
1.0
1.0
1.0
1.0
1.0
1.0
1.0
1.0
1.0
1.0
1.0
1.0
1.0
1.0
1.0
1.0
1.0
1.0
1.0
1.0
1.0
1.0
1.0
1.0
1.0
SCALARS material_prop_density double
LOOKUP_TABLE default
1500.0
1500.0
1500.0
1500.0
1500.0
1500.0
1500.0
1500.0
1500.0
1500.0
1500.0
1500.0
1500.0
1500.0
1500.0
1500.0
1500.0
1500.0
1500.0
1500.0
1500.0
1500.0
1500.0
1500.0
1500.0
1500.0
1500.0
1500.0
1500.0
1500.0
1500.0
1500.0
1500.0
1500.0
1500.0
1500.0
1500.0
1500.0
1500.0
1500.0
SCALARS material_prop_Young double
LOOKUP_TABLE default
30000000.0
30000000.0
30000000.0
30000000.0
30000000.0
30000000.0
30000000.0
30000000.0
30000000.0
30000000.0
30000000.0
30000000.0
30000000.0
30000000.0
30000000.0
30000000.0
30000000.0
30000000.0
30000000.0
30000000.0
30000000.0
30000000.0
30000000.0
30000000.0
30000000.0
30000000.0
30000000.0
30000000.0
30000000.0
30000000.0
30000000.0
30000000.0
30000000.0
30000000.0
30000000.0
30000000.0
30000000.0
30000000.0
30000000.0
30000000.0
SCALARS material_prop_poisson double
LOOKUP_TABLE default
0.2
0.2
0.2
0.2
0.2
0.2
0.2
0.2
0.2
0.2
0.2
0.2
0.2
0.2
0.2
0.2
0.2
0.2
0.2
0.2
0.2
0.2
0.2
0.2
0.2
0.2
0.2
0.2
0.2
0.2
0.2
0.2
0.2
0.2
0.2
0.2
0.2
0.2
0.2
0.2
