# vtk DataFile Version 2.0
data_68
ASCII
DATASET UNSTRUCTURED_GRID
POINTS 63 float
0.0 0.0 0.0
1.0 0.0 0.0
1.0 10.0 0.0
0.0 10.0 0.0
0.4999999999986921 0.0 0.0
1.0 0.499999999999551 0.0
1.0 0.9999999999991888 0.0
1.0 1.499999999998284 0.0
1.0 1.999999999996824 0.0
1.0 2.499999999995364 0.0
1.0 2.999999999993903 0.0
1.0 3.499999999992442 0.0
1.0 3.999999999991017 0.0
1.0 4.499999999991639 0.0
1.0 4.999999999992399 0.0
1.0 5.499999999993159 0.0
1.0 5.99999999999392 0.0
1.0 6.499999999994679 0.0
1.0 6.999999999995438 0.0
1.0 7.499999999996199 0.0
1.0 7.99999999999696 0.0
1.0 8.49999999999772 0.0
1.0 8.99999999999848 0.0
1.0 9.49999999999924 0.0
0.5000000000020595 10.0 0.0
0.0 9.5 0.0
0.0 8.999999999999998 0.0
0.0 8.499999999999998 0.0
0.0 7.999999999999996 0.0
0.0 7.499999999999995 0.0
0.0 6.999999999999995 0.0
0.0 6.499999999999996 0.0
0.0 5.999999999999996 0.0
0.0 5.499999999999996 0.0
0.0 4.999999999999996 0.0
0.0 4.499999999999997 0.0
0.0 3.999999999999996 0.0
0.0 3.499999999999997 0.0
0.0 2.999999999999998 0.0
0.0 2.499999999999998 0.0
0.0 1.999999999999998 0.0
0.0 1.5 0.0
0.0 0.9999999999999982 0.0
0.0 0.5 0.0
0.4999999999988605 0.4999999999997756 0.0
0.4999999999990288 0.9999999999995937 0.0
0.4999999999991972 1.499999999999142 0.0
0.4999999999993656 1.999999999998411 0.0
0.499999999999534 2.499999999997681 0.0
0.4999999999997023 2.999999999996951 0.0
0.4999999999998707 3.49999999999622 0.0
0.5000000000000391 3.999999999995507 0.0
0.5000000000002074 4.499999999995817 0.0
0.5000000000003758 4.999999999996198 0.0
0.5000000000005441 5.499999999996577 0.0
0.5000000000007125 5.999999999996958 0.0
0.500000000000881 6.499999999997339 0.0
0.5000000000010493 6.999999999997716 0.0
0.5000000000012177 7.499999999998098 0.0
0.500000000001386 7.999999999998479 0.0
0.5000000000015543 8.499999999998856 0.0
0.5000000000017226 8.99999999999924 0.0
0.5000000000018909 9.49999999999962 0.0
CELLS 40 200
4 0 4 44 43
4 43 44 45 42
4 42 45 46 41
4 41 46 47 40
4 40 47 48 39
4 39 48 49 38
4 38 49 50 37
4 37 50 51 36
4 36 51 52 35
4 35 52 53 34
4 34 53 54 33
4 33 54 55 32
4 32 55 56 31
4 31 56 57 30
4 30 57 58 29
4 29 58 59 28
4 28 59 60 27
4 27 60 61 26
4 26 61 62 25
4 25 62 24 3
4 4 1 5 44
4 44 5 6 45
4 45 6 7 46
4 46 7 8 47
4 47 8 9 48
4 48 9 10 49
4 49 10 11 50
4 50 11 12 51
4 51 12 13 52
4 52 13 14 53
4 53 14 15 54
4 54 15 16 55
4 55 16 17 56
4 56 17 18 57
4 57 18 19 58
4 58 19 20 59
4 59 20 21 60
4 60 21 22 61
4 61 22 23 62
4 62 23 2 24
CELL_TYPES 40
9
9
9
9
9
9
9
9
9
9
9
9
9
9
9
9
9
9
9
9
9
9
9
9
9
9
9
9
9
9
9
9
9
9
9
9
9
9
9
9
POINT_DATA 63
VECTORS displacement double
0.0 0.0 0.0
0.0 0.0 0.0
0.0 -0.8420799211321989 0.0
0.0 -0.842079921131726 0.0
1.4588740331566175e-15 0.0 0.0
0.0 -0.0218009715507732 0.0
0.0 -0.04525878601010148 0.0
0.0 -0.07140923780418039 0.0
0.0 -0.10147130496222262 0.0
0.0 -0.1359350855886661 0.0
0.0 -0.17514665160147583 0.0
0.0 -0.2190198498703256 0.0
0.0 -0.267043199550599 0.0
0.0 -0.3184934491056242 0.0
0.0 -0.3708249777314845 0.0
0.0 -0.42221482406127164 0.0
0.0 -0.4714583398759053 0.0
0.0 -0.5181637500926439 0.0
0.0 -0.5624783176227073 0.0
0.0 -0.6055379453240004 0.0
0.0 -0.6483608697885805 0.0
0.0 -0.6914068152559095 0.0
0.0 -0.7351930152753481 0.0
0.0 -0.7801597284305191 0.0
4.044007053615985e-14 -0.8058991758654817 0.0
0.0 -0.780159728430482 0.0
0.0 -0.7351930152754661 0.0
0.0 -0.6914068152561036 0.0
0.0 -0.648360869788836 0.0
0.0 -0.6055379453243307 0.0
0.0 -0.562478317623106 0.0
0.0 -0.5181637500931237 0.0
0.0 -0.47145833987648994 0.0
0.0 -0.4222148240619642 0.0
0.0 -0.37082497773227197 0.0
0.0 -0.31849344910649796 0.0
0.0 -0.2670431995514958 0.0
0.0 -0.2190198498710184 0.0
0.0 -0.1751466516019793 0.0
0.0 -0.13593508558900175 0.0
0.0 -0.10147130496242575 0.0
0.0 -0.0714092378042773 0.0
0.0 -0.04525878601013997 0.0
0.0 -0.02180097155079236 0.0
-1.3080624262344493e-15 -0.021827954379415586 0.0
1.1068590916765207e-15 -0.04521532708467771 0.0
-3.644174995563735e-16 -0.0713692191285559 0.0
1.3116682368348495e-16 -0.10160690317619263 0.0
-4.900436698117733e-16 -0.13596398095265555 0.0
-8.65802876489805e-17 -0.17493318428725024 0.0
2.681669707540642e-16 -0.21900395197420935 0.0
-1.3622088328124494e-15 -0.26714376963807546 0.0
-3.2829079371610754e-16 -0.3185912446494511 0.0
1.835990706939848e-15 -0.3709478725269614 0.0
1.855248559509846e-15 -0.42214882062626574 0.0
-2.3073335102093366e-15 -0.4713955146414011 0.0
1.1735394209502325e-16 -0.5180119803248117 0.0
2.80540498687378e-15 -0.5623663364512517 0.0
-2.3580778578906284e-15 -0.605446386663274 0.0
-2.5237214396483495e-15 -0.6482967733597244 0.0
9.300316960311145e-16 -0.6913938586609101 0.0
-6.403040920599875e-15 -0.7350860519017114 0.0
-3.9768590673761863e-14 -0.7783825035142239 0.0
VECTORS velocity double
0.0 0.0 0.0
0.0 0.0 0.0
0.0 -14.437933629962487 0.0
0.0 -14.437933629963915 0.0
-6.821453380698507e-13 0.0 0.0
0.0 -1.8898073915855016 0.0
0.0 -3.933333720331524 0.0
0.0 -5.789405100161523 0.0
0.0 -7.932300207344569 0.0
0.0 -10.018978642982747 0.0
0.0 -11.725706577402065 0.0
0.0 -13.195559290483542 0.0
0.0 -14.382818213701182 0.0
0.0 -15.007066593864023 0.0
0.0 -15.303677536714265 0.0
0.0 -15.14884467818996 0.0
0.0 -14.497726653362658 0.0
0.0 -13.781411123068883 0.0
0.0 -12.633949458478376 0.0
0.0 -11.98398322653835 0.0
0.0 -11.933324515827426 0.0
0.0 -12.533429016378538 0.0
0.0 -13.167093508007303 0.0
0.0 -14.083828425950696 0.0
-1.7880214127007465e-12 -14.555879170622827 0.0
0.0 -14.083828425954241 0.0
0.0 -13.167093508012405 0.0
0.0 -12.533429016381225 0.0
0.0 -11.933324515831414 0.0
0.0 -11.9839832265366 0.0
0.0 -12.633949458467962 0.0
0.0 -13.781411123058987 0.0
0.0 -14.497726653357429 0.0
0.0 -15.148844678181902 0.0
0.0 -15.303677536716227 0.0
0.0 -15.007066593871624 0.0
0.0 -14.382818213718686 0.0
0.0 -13.195559290503716 0.0
0.0 -11.725706577422674 0.0
0.0 -10.018978642998988 0.0
0.0 -7.932300207358324 0.0
0.0 -5.789405100167884 0.0
0.0 -3.9333337203329304 0.0
0.0 -1.889807391587574 0.0
1.5610849371108492e-13 -1.8767054602479853 0.0
2.532971578299172e-13 -3.9028704896622766 0.0
-4.5116853981442273e-13 -5.856384333286103 0.0
1.7827890070244532e-13 -7.974553163823823 0.0
3.5612672341151787e-13 -9.859433789683347 0.0
-1.6209556833484414e-13 -11.719742876836156 0.0
-3.4462616460490044e-13 -13.34921380430021 0.0
8.002832189801398e-13 -14.39017425277526 0.0
-2.910644843421931e-13 -15.037597047946122 0.0
9.879377419454922e-15 -15.209341797425017 0.0
1.2274061494415179e-14 -15.05369639517694 0.0
6.605257970025703e-13 -14.469431735908753 0.0
-1.5629565321458437e-12 -13.73217627432506 0.0
7.512837267769331e-13 -12.711620247500933 0.0
3.1483408325633215e-13 -11.99817350385712 0.0
-8.143457096081612e-13 -12.054342585467207 0.0
2.513862015689678e-13 -12.571820115580417 0.0
1.0875862702109238e-12 -13.289111424168421 0.0
-3.560149931217445e-13 -14.125391273920837 0.0
VECTORS boundary_conditions double
1.0 1.0 0.0
1.0 1.0 0.0
1.0 0.0 0.0
1.0 0.0 0.0
0.0 1.0 0.0
1.0 0.0 0.0
1.0 0.0 0.0
1.0 0.0 0.0
1.0 0.0 0.0
1.0 0.0 0.0
1.0 0.0 0.0
1.0 0.0 0.0
1.0 0.0 0.0
1.0 0.0 0.0
1.0 0.0 0.0
1.0 0.0 0.0
1.0 0.0 0.0
1.0 0.0 0.0
1.0 0.0 0.0
1.0 0.0 0.0
1.0 0.0 0.0
1.0 0.0 0.0
1.0 0.0 0.0
1.0 0.0 0.0
0.0 0.0 0.0
1.0 0.0 0.0
1.0 0.0 0.0
1.0 0.0 0.0
1.0 0.0 0.0
1.0 0.0 0.0
1.0 0.0 0.0
1.0 0.0 0.0
1.0 0.0 0.0
1.0 0.0 0.0
1.0 0.0 0.0
1.0 0.0 0.0
1.0 0.0 0.0
1.0 0.0 0.0
1.0 0.0 0.0
1.0 0.0 0.0
1.0 0.0 0.0
1.0 0.0 0.0
1.0 0.0 0.0
1.0 0.0 0.0
0.0 0.0 0.0
0.0 0.0 0.0
0.0 0.0 0.0
0.0 0.0 0.0
0.0 0.0 0.0
0.0 0.0 0.0
0.0 0.0 0.0
0.0 0.0 0.0
0.0 0.0 0.0
0.0 0.0 0.0
0.0 0.0 0.0
0.0 0.0 0.0
0.0 0.0 0.0
0.0 0.0 0.0
0.0 0.0 0.0
0.0 0.0 0.0
0.0 0.0 0.0
0.0 0.0 0.0
0.0 0.0 0.0
CELL_DATA 40
SCALARS material_index double
LOOKUP_TABLE default
1.0
1.0
1.0
1.0
1.0
1.0
1.0
1.0
1.0
1.0
1.0
1.0
1.0
1.0
1.0
1.0
1.0
1.0
1.0
1.0
1.0
1.0
1.0
1.0
1.0
1.0
1.0
1.0
1.0
1.0
1.0
1.0
1.0
1.0
1.0
1.0
1.0
1.0
1.0
1.0
SCALARS material_prop_density double
LOOKUP_TABLE default
1500.0
1500.0
1500.0
1500.0
1500.0
1500.0
1500.0
1500.0
1500.0
1500.0
1500.0
1500.0
1500.0
1500.0
1500.0
1500.0
1500.0
1500.0
1500.0
1500.0
1500.0
1500.0
1500.0
1500.0
1500.0
1500.0
1500.0
1500.0
1500.0
1500.0
1500.0
1500.0
1500.0
1500.0
1500.0
1500.0
1500.0
1500.0
1500.0
1500.0
SCALARS material_prop_Young double
LOOKUP_TABLE default
30000000.0
30000000.0
30000000.0
30000000.0
30000000.0
30000000.0
30000000.0
30000000.0
30000000.0
30000000.0
30000000.0
30000000.0
30000000.0
30000000.0
30000000.0
30000000.0
30000000.0
30000000.0
30000000.0
30000000.0
30000000.0
30000000.0
30000000.0
30000000.0
30000000.0
30000000.0
30000000.0
30000000.0
30000000.0
30000000.0
30000000.0
30000000.0
30000000.0
30000000.0
30000000.0
30000000.0
30000000.0
30000000.0
30000000.0
30000000.0
SCALARS material_prop_poisson double
LOOKUP_TABLE default
0.2
0.2
0.2
0.2
0.2
0.2
0.2
0.2
0.2
0.2
0.2
0.2
0.2
0.2
0.2
0.2
0.2
0.2
0.2
0.2
0.2
0.2
0.2
0.2
0.2
0.2
0.2
0.2
0.2
0.2
0.2
0.2
0.2
0.2
0.2
0.2
0.2
0.2
0.2
0.2
