# vtk DataFile Version 2.0
data_177
ASCII
DATASET UNSTRUCTURED_GRID
POINTS 63 float
0.0 0.0 0.0
1.0 0.0 0.0
1.0 10.0 0.0
0.0 10.0 0.0
0.4999999999986921 0.0 0.0
1.0 0.499999999999551 0.0
1.0 0.9999999999991888 0.0
1.0 1.499999999998284 0.0
1.0 1.999999999996824 0.0
1.0 2.499999999995364 0.0
1.0 2.999999999993903 0.0
1.0 3.499999999992442 0.0
1.0 3.999999999991017 0.0
1.0 4.499999999991639 0.0
1.0 4.999999999992399 0.0
1.0 5.499999999993159 0.0
1.0 5.99999999999392 0.0
1.0 6.499999999994679 0.0
1.0 6.999999999995438 0.0
1.0 7.499999999996199 0.0
1.0 7.99999999999696 0.0
1.0 8.49999999999772 0.0
1.0 8.99999999999848 0.0
1.0 9.49999999999924 0.0
0.5000000000020595 10.0 0.0
0.0 9.5 0.0
0.0 8.999999999999998 0.0
0.0 8.499999999999998 0.0
0.0 7.999999999999996 0.0
0.0 7.499999999999995 0.0
0.0 6.999999999999995 0.0
0.0 6.499999999999996 0.0
0.0 5.999999999999996 0.0
0.0 5.499999999999996 0.0
0.0 4.999999999999996 0.0
0.0 4.499999999999997 0.0
0.0 3.999999999999996 0.0
0.0 3.499999999999997 0.0
0.0 2.999999999999998 0.0
0.0 2.499999999999998 0.0
0.0 1.999999999999998 0.0
0.0 1.5 0.0
0.0 0.9999999999999982 0.0
0.0 0.5 0.0
0.4999999999988605 0.4999999999997756 0.0
0.4999999999990288 0.9999999999995937 0.0
0.4999999999991972 1.499999999999142 0.0
0.4999999999993656 1.999999999998411 0.0
0.499999999999534 2.499999999997681 0.0
0.4999999999997023 2.999999999996951 0.0
0.4999999999998707 3.49999999999622 0.0
0.5000000000000391 3.999999999995507 0.0
0.5000000000002074 4.499999999995817 0.0
0.5000000000003758 4.999999999996198 0.0
0.5000000000005441 5.499999999996577 0.0
0.5000000000007125 5.999999999996958 0.0
0.500000000000881 6.499999999997339 0.0
0.5000000000010493 6.999999999997716 0.0
0.5000000000012177 7.499999999998098 0.0
0.500000000001386 7.999999999998479 0.0
0.5000000000015543 8.499999999998856 0.0
0.5000000000017226 8.99999999999924 0.0
0.5000000000018909 9.49999999999962 0.0
CELLS 40 200
4 0 4 44 43
4 43 44 45 42
4 42 45 46 41
4 41 46 47 40
4 40 47 48 39
4 39 48 49 38
4 38 49 50 37
4 37 50 51 36
4 36 51 52 35
4 35 52 53 34
4 34 53 54 33
4 33 54 55 32
4 32 55 56 31
4 31 56 57 30
4 30 57 58 29
4 29 58 59 28
4 28 59 60 27
4 27 60 61 26
4 26 61 62 25
4 25 62 24 3
4 4 1 5 44
4 44 5 6 45
4 45 6 7 46
4 46 7 8 47
4 47 8 9 48
4 48 9 10 49
4 49 10 11 50
4 50 11 12 51
4 51 12 13 52
4 52 13 14 53
4 53 14 15 54
4 54 15 16 55
4 55 16 17 56
4 56 17 18 57
4 57 18 19 58
4 58 19 20 59
4 59 20 21 60
4 60 21 22 61
4 61 22 23 62
4 62 23 2 24
CELL_TYPES 40
9
9
9
9
9
9
9
9
9
9
9
9
9
9
9
9
9
9
9
9
9
9
9
9
9
9
9
9
9
9
9
9
9
9
9
9
9
9
9
9
POINT_DATA 63
VECTORS displacement double
0.0 0.0 0.0
0.0 0.0 0.0
0.0 -0.9524766591683265 0.0
0.0 -0.9524766591678615 0.0
-4.4906752279699725e-17 0.0 0.0
0.0 -0.04070510156928819 0.0
0.0 -0.0816246878259644 0.0
0.0 -0.12307297334314438 0.0
0.0 -0.16560765101120398 0.0
0.0 -0.2099833711558589 0.0
0.0 -0.25691083624044103 0.0
0.0 -0.30672437861087076 0.0
0.0 -0.359350475596381 0.0
0.0 -0.4140654128814632 0.0
0.0 -0.4697021555869469 0.0
0.0 -0.5248120359016227 0.0
0.0 -0.5779823191322422 0.0
0.0 -0.6282751096015983 0.0
0.0 -0.675410610828769 0.0
0.0 -0.7198109677280105 0.0
0.0 -0.7624597647348714 0.0
0.0 -0.8044831278282947 0.0
0.0 -0.8468399097208483 0.0
0.0 -0.8909112923630558 0.0
3.8914217856355705e-14 -0.9162997345796187 0.0
0.0 -0.890911292363019 0.0
0.0 -0.8468399097209602 0.0
0.0 -0.8044831278284813 0.0
0.0 -0.7624597647351246 0.0
0.0 -0.7198109677283364 0.0
0.0 -0.6754106108291827 0.0
0.0 -0.6282751096021149 0.0
0.0 -0.5779823191328715 0.0
0.0 -0.5248120359023654 0.0
0.0 -0.46970215558779216 0.0
0.0 -0.4140654128823887 0.0
0.0 -0.35935047559734656 0.0
0.0 -0.3067243786116449 0.0
0.0 -0.25691083624103084 0.0
0.0 -0.20998337115628063 0.0
0.0 -0.1656076510114776 0.0
0.0 -0.1230729733432872 0.0
0.0 -0.0816246878260312 0.0
0.0 -0.0407051015693251 0.0
2.3266718140229177e-16 -0.040713768258478555 0.0
-6.717834547374065e-17 -0.08163616050717024 0.0
-1.7586454961200094e-16 -0.12308922180977107 0.0
2.356062798958723e-16 -0.16561510549891434 0.0
6.577348529966306e-16 -0.2099885549034333 0.0
-1.4264331906995578e-16 -0.256903212571609 0.0
-7.845714222113722e-16 -0.30671540767215 0.0
-8.914699997406973e-16 -0.35934002079509847 0.0
2.311084065417072e-16 -0.4140588984774738 0.0
1.9830798345592116e-16 -0.4697024543991319 0.0
6.387332826145577e-17 -0.5248087886416876 0.0
3.9966912331136977e-16 -0.5779787524856564 0.0
2.3870858676146778e-16 -0.6282630288257562 0.0
-2.431497303927428e-16 -0.6753968982844558 0.0
-2.286823992230878e-16 -0.7198094074882312 0.0
-3.350805975874983e-16 -0.7624645064310492 0.0
-1.4313849270585754e-15 -0.8044757471480718 0.0
-6.791388820027954e-15 -0.8467423074862771 0.0
-3.7985936636919186e-14 -0.8890935788142663 0.0
VECTORS velocity double
0.0 0.0 0.0
0.0 0.0 0.0
0.0 -11.135967474330183 0.0
0.0 -11.135967474328744 0.0
3.483211715935381e-13 0.0 0.0
0.0 -2.3600294927675853 0.0
0.0 -4.546221014883619 0.0
0.0 -6.491055931753962 0.0
0.0 -8.192274058240738 0.0
0.0 -9.679624227668368 0.0
0.0 -11.010406566942452 0.0
0.0 -12.183303704966061 0.0
0.0 -13.174081906886416 0.0
0.0 -13.94895305272136 0.0
0.0 -14.502602286306299 0.0
0.0 -14.81211497472808 0.0
0.0 -14.885922308597541 0.0
0.0 -14.751820545037322 0.0
0.0 -14.418317021442412 0.0
0.0 -13.86616077088736 0.0
0.0 -13.167625031667129 0.0
0.0 -12.435035765833062 0.0
0.0 -11.766457210486198 0.0
0.0 -11.290091101130944 0.0
3.6032456815413293e-13 -11.122986153170778 0.0
0.0 -11.290091101128748 0.0
0.0 -11.766457210483736 0.0
0.0 -12.435035765829515 0.0
0.0 -13.167625031662343 0.0
0.0 -13.866160770882328 0.0
0.0 -14.418317021438519 0.0
0.0 -14.751820545034459 0.0
0.0 -14.88592230859662 0.0
0.0 -14.812114974730502 0.0
0.0 -14.502602286313063 0.0
0.0 -13.948953052732673 0.0
0.0 -13.174081906902668 0.0
0.0 -12.18330370498205 0.0
0.0 -11.010406566957135 0.0
0.0 -9.679624227680797 0.0
0.0 -8.19227405825102 0.0
0.0 -6.491055931760114 0.0
0.0 -4.5462210148869096 0.0
0.0 -2.3600294927699075 0.0
5.814892094148926e-15 -2.3592061105812796 0.0
-1.0397531639593247e-13 -4.543526560876402 0.0
1.1269292019342984e-13 -6.490899053035063 0.0
-3.0285920437003226e-13 -8.191338144543815 0.0
-3.167657216628654e-13 -9.680363311779391 0.0
1.0013393275536568e-13 -11.009334784693195 0.0
1.694661497619661e-13 -12.17895306753265 0.0
1.7717079583464892e-13 -13.168135127181072 0.0
2.257534933460174e-14 -13.942303753151506 0.0
5.4014678817280344e-14 -14.498849041432601 0.0
7.94281077887566e-14 -14.817250092716808 0.0
4.53509586491759e-14 -14.889871731358529 0.0
5.424991847777257e-14 -14.76027821488103 0.0
-3.2537683241279694e-13 -14.417340931520414 0.0
-2.466956592732182e-13 -13.868704222528374 0.0
-1.0080514990485146e-14 -13.168215752757778 0.0
1.3429932640027492e-13 -12.437774935761528 0.0
-1.7967317354835396e-13 -11.782220520158415 0.0
3.5247306862706913e-14 -11.297634928320676 0.0
VECTORS boundary_conditions double
1.0 1.0 0.0
1.0 1.0 0.0
1.0 0.0 0.0
1.0 0.0 0.0
0.0 1.0 0.0
1.0 0.0 0.0
1.0 0.0 0.0
1.0 0.0 0.0
1.0 0.0 0.0
1.0 0.0 0.0
1.0 0.0 0.0
1.0 0.0 0.0
1.0 0.0 0.0
1.0 0.0 0.0
1.0 0.0 0.0
1.0 0.0 0.0
1.0 0.0 0.0
1.0 0.0 0.0
1.0 0.0 0.0
1.0 0.0 0.0
1.0 0.0 0.0
1.0 0.0 0.0
1.0 0.0 0.0
1.0 0.0 0.0
0.0 0.0 0.0
1.0 0.0 0.0
1.0 0.0 0.0
1.0 0.0 0.0
1.0 0.0 0.0
1.0 0.0 0.0
1.0 0.0 0.0
1.0 0.0 0.0
1.0 0.0 0.0
1.0 0.0 0.0
1.0 0.0 0.0
1.0 0.0 0.0
1.0 0.0 0.0
1.0 0.0 0.0
1.0 0.0 0.0
1.0 0.0 0.0
1.0 0.0 0.0
1.0 0.0 0.0
1.0 0.0 0.0
1.0 0.0 0.0
0.0 0.0 0.0
0.0 0.0 0.0
0.0 0.0 0.0
0.0 0.0 0.0
0.0 0.0 0.0
0.0 0.0 0.0
0.0 0.0 0.0
0.0 0.0 0.0
0.0 0.0 0.0
0.0 0.0 0.0
0.0 0.0 0.0
0.0 0.0 0.0
0.0 0.0 0.0
0.0 0.0 0.0
0.0 0.0 0.0
0.0 0.0 0.0
0.0 0.0 0.0
0.0 0.0 0.0
0.0 0.0 0.0
CELL_DATA 40
SCALARS material_index double
LOOKUP_TABLE default
1.0
1.0
1.0
1.0
1.0
1.0
1.0
1.0
1.0
1.0
1.0
1.0
1.0
1.0
1.0
1.0
1.0
1.0
1.0
1.0
1.0
1.0
1.0
1.0
1.0
1.0
1.0
1.0
1.0
1.0
1.0
1.0
1.0
1.0
1.0
1.0
1.0
1.0
1.0
1.0
SCALARS material_prop_density double
LOOKUP_TABLE default
1500.0
1500.0
1500.0
1500.0
1500.0
1500.0
1500.0
1500.0
1500.0
1500.0
1500.0
1500.0
1500.0
1500.0
1500.0
1500.0
1500.0
1500.0
1500.0
1500.0
1500.0
1500.0
1500.0
1500.0
1500.0
1500.0
1500.0
1500.0
1500.0
1500.0
1500.0
1500.0
1500.0
1500.0
1500.0
1500.0
1500.0
1500.0
1500.0
1500.0
SCALARS material_prop_Young double
LOOKUP_TABLE default
30000000.0
30000000.0
30000000.0
30000000.0
30000000.0
30000000.0
30000000.0
30000000.0
30000000.0
30000000.0
30000000.0
30000000.0
30000000.0
30000000.0
30000000.0
30000000.0
30000000.0
30000000.0
30000000.0
30000000.0
30000000.0
30000000.0
30000000.0
30000000.0
30000000.0
30000000.0
30000000.0
30000000.0
30000000.0
30000000.0
30000000.0
30000000.0
30000000.0
30000000.0
30000000.0
30000000.0
30000000.0
30000000.0
30000000.0
30000000.0
SCALARS material_prop_poisson double
LOOKUP_TABLE default
0.2
0.2
0.2
0.2
0.2
0.2
0.2
0.2
0.2
0.2
0.2
0.2
0.2
0.2
0.2
0.2
0.2
0.2
0.2
0.2
0.2
0.2
0.2
0.2
0.2
0.2
0.2
0.2
0.2
0.2
0.2
0.2
0.2
0.2
0.2
0.2
0.2
0.2
0.2
0.2
