# vtk DataFile Version 2.0
data_2
ASCII
DATASET UNSTRUCTURED_GRID
POINTS 63 float
0.0 0.0 0.0
1.0 0.0 0.0
1.0 10.0 0.0
0.0 10.0 0.0
0.4999999999986921 0.0 0.0
1.0 0.499999999999551 0.0
1.0 0.9999999999991888 0.0
1.0 1.499999999998284 0.0
1.0 1.999999999996824 0.0
1.0 2.499999999995364 0.0
1.0 2.999999999993903 0.0
1.0 3.499999999992442 0.0
1.0 3.999999999991017 0.0
1.0 4.499999999991639 0.0
1.0 4.999999999992399 0.0
1.0 5.499999999993159 0.0
1.0 5.99999999999392 0.0
1.0 6.499999999994679 0.0
1.0 6.999999999995438 0.0
1.0 7.499999999996199 0.0
1.0 7.99999999999696 0.0
1.0 8.49999999999772 0.0
1.0 8.99999999999848 0.0
1.0 9.49999999999924 0.0
0.5000000000020595 10.0 0.0
0.0 9.5 0.0
0.0 8.999999999999998 0.0
0.0 8.499999999999998 0.0
0.0 7.999999999999996 0.0
0.0 7.499999999999995 0.0
0.0 6.999999999999995 0.0
0.0 6.499999999999996 0.0
0.0 5.999999999999996 0.0
0.0 5.499999999999996 0.0
0.0 4.999999999999996 0.0
0.0 4.499999999999997 0.0
0.0 3.999999999999996 0.0
0.0 3.499999999999997 0.0
0.0 2.999999999999998 0.0
0.0 2.499999999999998 0.0
0.0 1.999999999999998 0.0
0.0 1.5 0.0
0.0 0.9999999999999982 0.0
0.0 0.5 0.0
0.4999999999988605 0.4999999999997756 0.0
0.4999999999990288 0.9999999999995937 0.0
0.4999999999991972 1.499999999999142 0.0
0.4999999999993656 1.999999999998411 0.0
0.499999999999534 2.499999999997681 0.0
0.4999999999997023 2.999999999996951 0.0
0.4999999999998707 3.49999999999622 0.0
0.5000000000000391 3.999999999995507 0.0
0.5000000000002074 4.499999999995817 0.0
0.5000000000003758 4.999999999996198 0.0
0.5000000000005441 5.499999999996577 0.0
0.5000000000007125 5.999999999996958 0.0
0.500000000000881 6.499999999997339 0.0
0.5000000000010493 6.999999999997716 0.0
0.5000000000012177 7.499999999998098 0.0
0.500000000001386 7.999999999998479 0.0
0.5000000000015543 8.499999999998856 0.0
0.5000000000017226 8.99999999999924 0.0
0.5000000000018909 9.49999999999962 0.0
CELLS 40 200
4 0 4 44 43
4 43 44 45 42
4 42 45 46 41
4 41 46 47 40
4 40 47 48 39
4 39 48 49 38
4 38 49 50 37
4 37 50 51 36
4 36 51 52 35
4 35 52 53 34
4 34 53 54 33
4 33 54 55 32
4 32 55 56 31
4 31 56 57 30
4 30 57 58 29
4 29 58 59 28
4 28 59 60 27
4 27 60 61 26
4 26 61 62 25
4 25 62 24 3
4 4 1 5 44
4 44 5 6 45
4 45 6 7 46
4 46 7 8 47
4 47 8 9 48
4 48 9 10 49
4 49 10 11 50
4 50 11 12 51
4 51 12 13 52
4 52 13 14 53
4 53 14 15 54
4 54 15 16 55
4 55 16 17 56
4 56 17 18 57
4 57 18 19 58
4 58 19 20 59
4 59 20 21 60
4 60 21 22 61
4 61 22 23 62
4 62 23 2 24
CELL_TYPES 40
9
9
9
9
9
9
9
9
9
9
9
9
9
9
9
9
9
9
9
9
9
9
9
9
9
9
9
9
9
9
9
9
9
9
9
9
9
9
9
9
POINT_DATA 63
VECTORS displacement double
0.0 0.0 0.0
0.0 0.0 0.0
0.0 -0.04294359139849698 0.0
0.0 -0.042943591398265764 0.0
-3.3390164885067625e-26 0.0 0.0
0.0 -6.368107263906956e-13 0.0
0.0 -2.7171864361818174e-12 0.0
0.0 -1.093200937132254e-11 0.0
0.0 -4.3704514433416207e-11 0.0
0.0 -1.7410095977126715e-10 0.0
0.0 -6.909109321244773e-10 0.0
0.0 -2.730048198079602e-09 0.0
0.0 -1.0734294089679213e-08 0.0
0.0 -4.196570817098444e-08 0.0
0.0 -1.629709490838759e-07 0.0
0.0 -6.278828307980494e-07 0.0
0.0 -2.396021537738052e-06 0.0
0.0 -9.03635575406342e-06 0.0
0.0 -3.3578578988484235e-05 0.0
0.0 -0.00012239994245938503 0.0
0.0 -0.00043473430913032647 0.0
0.0 -0.0014880622522473535 0.0
0.0 -0.004802381066373985 0.0
0.0 -0.01465216816868596 0.0
1.732429333935906e-14 -0.023114459199965926 0.0
0.0 -0.014652168168669369 0.0
0.0 -0.004802381066391957 0.0
0.0 -0.0014880622522567169 0.0
0.0 -0.0004347343091338579 0.0
0.0 -0.00012239994246063124 0.0
0.0 -3.3578578988896286e-05 0.0
0.0 -9.036355754193158e-06 0.0
0.0 -2.3960215377774328e-06 0.0
0.0 -6.27882830809678e-07 0.0
0.0 -1.6297094908723292e-07 0.0
0.0 -4.196570817193519e-08 0.0
0.0 -1.073429408993734e-08 0.0
0.0 -2.7300481981311375e-09 0.0
0.0 -6.909109321339362e-10 0.0
0.0 -1.7410095977294e-10 0.0
0.0 -4.3704514433667036e-11 0.0
0.0 -1.0932009371343877e-11 0.0
0.0 -2.7171864361818756e-12 0.0
0.0 -6.368107263906543e-13 0.0
-1.994902777186659e-25 -6.36810726390675e-13 0.0
-7.57151363103272e-25 -2.717186436181848e-12 0.0
-1.2794754187977697e-24 -1.093200937133321e-11 0.0
-3.665758097014499e-24 -4.370451443354165e-11 0.0
-1.740762931719723e-24 -1.7410095977210356e-10 0.0
1.1028027402211665e-22 -6.909109321292073e-10 0.0
2.0919354213143447e-21 -2.7300481981053705e-09 0.0
3.3304233905118187e-21 -1.0734294089808306e-08 0.0
1.4430619992306507e-20 -4.196570817145956e-08 0.0
5.079019482813814e-20 -1.6297094908555492e-07 0.0
1.738450039536418e-19 -6.278828308038181e-07 0.0
5.845534216096989e-19 -2.3960215377637854e-06 0.0
1.8864193312764824e-18 -9.036355753337367e-06 0.0
5.824239372270485e-18 -3.357857908984262e-05 0.0
1.6996967349776697e-17 -0.0001223999298967034 0.0
5.096324480184322e-17 -0.0004347358044395214 0.0
2.9021030851794733e-16 -0.0014878959987802546 0.0
-1.4847689037919771e-15 -0.004818662814422262 0.0
-1.9624582863631427e-14 -0.013500860919428195 0.0
VECTORS velocity double
0.0 0.0 0.0
0.0 0.0 0.0
0.0 -8.16926393685933 0.0
0.0 -8.169263936823011 0.0
-1.2973365783711688e-23 0.0 0.0
0.0 -2.4735227975811574e-10 0.0
0.0 -1.0539570030190475e-09 0.0
0.0 -4.233191911897621e-09 0.0
0.0 -1.6891327268240535e-08 0.0
0.0 -6.714338561034003e-08 0.0
0.0 -2.658052312377279e-07 0.0
0.0 -1.047367499805786e-06 0.0
0.0 -4.104897235045846e-06 0.0
0.0 -1.5987812430899483e-05 0.0
0.0 -6.181186059489523e-05 0.0
0.0 -0.00023687473881630364 0.0
0.0 -0.000898029118136925 0.0
0.0 -0.003359213601504685 0.0
0.0 -0.012351714996123083 0.0
0.0 -0.04439414508171321 0.0
0.0 -0.1545860391750421 0.0
0.0 -0.5135787521836523 0.0
0.0 -1.5755624842569584 0.0
0.0 -4.41979053492529 0.0
3.903720056911954e-12 -5.9058421264334955 0.0
0.0 -4.419790534917671 0.0
0.0 -1.5755624842619016 0.0
0.0 -0.5135787521867877 0.0
0.0 -0.15458603917627267 0.0
0.0 -0.04439414508215924 0.0
0.0 -0.012351714996273253 0.0
0.0 -0.003359213601552586 0.0
0.0 -0.0008980291181516078 0.0
0.0 -0.00023687473882067243 0.0
0.0 -6.18118605961642e-05 0.0
0.0 -1.598781243126068e-05 0.0
0.0 -4.104897235144329e-06 0.0
0.0 -1.0473674998255273e-06 0.0
0.0 -2.658052312413643e-07 0.0
0.0 -6.714338561098489e-08 0.0
0.0 -1.689132726833749e-08 0.0
0.0 -4.233191911905903e-09 0.0
0.0 -1.0539570030190748e-09 0.0
0.0 -2.473522797581003e-10 0.0
-7.727115983269329e-23 -2.47352279758108e-10 0.0
-2.921760055225589e-22 -1.0539570030190618e-09 0.0
-4.909471720262738e-22 -4.233191911901763e-09 0.0
-1.3993863954998775e-21 -1.689132726828902e-08 0.0
-5.983419117596244e-22 -6.714338561066245e-08 0.0
4.2836495040364294e-20 -2.658052312395463e-07 0.0
7.976062491545415e-19 -1.0473674998156568e-06 0.0
1.2604927232050517e-18 -4.104897235095099e-06 0.0
5.4420024313654115e-18 -1.5987812431079986e-05 0.0
1.902219166833702e-17 -6.181186059552992e-05 0.0
6.454288132729848e-17 -0.00023687473881846966 0.0
2.14554313215733e-16 -0.0008980291181467065 0.0
6.814647865196102e-16 -0.0033592136012088793 0.0
2.0556283291143093e-15 -0.012351715037165471 0.0
5.7858465720267964e-15 -0.044394139980881125 0.0
1.660149980829147e-14 -0.15458664862572222 0.0
9.843335792575584e-14 -0.5135105566508505 0.0
-8.325794662056211e-13 -1.5823285697072191 0.0
-4.043364717593272e-12 -3.921369723497011 0.0
VECTORS boundary_conditions double
1.0 1.0 0.0
1.0 1.0 0.0
1.0 0.0 0.0
1.0 0.0 0.0
0.0 1.0 0.0
1.0 0.0 0.0
1.0 0.0 0.0
1.0 0.0 0.0
1.0 0.0 0.0
1.0 0.0 0.0
1.0 0.0 0.0
1.0 0.0 0.0
1.0 0.0 0.0
1.0 0.0 0.0
1.0 0.0 0.0
1.0 0.0 0.0
1.0 0.0 0.0
1.0 0.0 0.0
1.0 0.0 0.0
1.0 0.0 0.0
1.0 0.0 0.0
1.0 0.0 0.0
1.0 0.0 0.0
1.0 0.0 0.0
0.0 0.0 0.0
1.0 0.0 0.0
1.0 0.0 0.0
1.0 0.0 0.0
1.0 0.0 0.0
1.0 0.0 0.0
1.0 0.0 0.0
1.0 0.0 0.0
1.0 0.0 0.0
1.0 0.0 0.0
1.0 0.0 0.0
1.0 0.0 0.0
1.0 0.0 0.0
1.0 0.0 0.0
1.0 0.0 0.0
1.0 0.0 0.0
1.0 0.0 0.0
1.0 0.0 0.0
1.0 0.0 0.0
1.0 0.0 0.0
0.0 0.0 0.0
0.0 0.0 0.0
0.0 0.0 0.0
0.0 0.0 0.0
0.0 0.0 0.0
0.0 0.0 0.0
0.0 0.0 0.0
0.0 0.0 0.0
0.0 0.0 0.0
0.0 0.0 0.0
0.0 0.0 0.0
0.0 0.0 0.0
0.0 0.0 0.0
0.0 0.0 0.0
0.0 0.0 0.0
0.0 0.0 0.0
0.0 0.0 0.0
0.0 0.0 0.0
0.0 0.0 0.0
CELL_DATA 40
SCALARS material_index double
LOOKUP_TABLE default
1.0
1.0
1.0
1.0
1.0
1.0
1.0
1.0
1.0
1.0
1.0
1.0
1.0
1.0
1.0
1.0
1.0
1.0
1.0
1.0
1.0
1.0
1.0
1.0
1.0
1.0
1.0
1.0
1.0
1.0
1.0
1.0
1.0
1.0
1.0
1.0
1.0
1.0
1.0
1.0
SCALARS material_prop_density double
LOOKUP_TABLE default
1500.0
1500.0
1500.0
1500.0
1500.0
1500.0
1500.0
1500.0
1500.0
1500.0
1500.0
1500.0
1500.0
1500.0
1500.0
1500.0
1500.0
1500.0
1500.0
1500.0
1500.0
1500.0
1500.0
1500.0
1500.0
1500.0
1500.0
1500.0
1500.0
1500.0
1500.0
1500.0
1500.0
1500.0
1500.0
1500.0
1500.0
1500.0
1500.0
1500.0
SCALARS material_prop_Young double
LOOKUP_TABLE default
30000000.0
30000000.0
30000000.0
30000000.0
30000000.0
30000000.0
30000000.0
30000000.0
30000000.0
30000000.0
30000000.0
30000000.0
30000000.0
30000000.0
30000000.0
30000000.0
30000000.0
30000000.0
30000000.0
30000000.0
30000000.0
30000000.0
30000000.0
30000000.0
30000000.0
30000000.0
30000000.0
30000000.0
30000000.0
30000000.0
30000000.0
30000000.0
30000000.0
30000000.0
30000000.0
30000000.0
30000000.0
30000000.0
30000000.0
30000000.0
SCALARS material_prop_poisson double
LOOKUP_TABLE default
0.2
0.2
0.2
0.2
0.2
0.2
0.2
0.2
0.2
0.2
0.2
0.2
0.2
0.2
0.2
0.2
0.2
0.2
0.2
0.2
0.2
0.2
0.2
0.2
0.2
0.2
0.2
0.2
0.2
0.2
0.2
0.2
0.2
0.2
0.2
0.2
0.2
0.2
0.2
0.2
