# vtk DataFile Version 2.0
data_90
ASCII
DATASET UNSTRUCTURED_GRID
POINTS 63 float
0.0 0.0 0.0
1.0 0.0 0.0
1.0 10.0 0.0
0.0 10.0 0.0
0.4999999999986921 0.0 0.0
1.0 0.499999999999551 0.0
1.0 0.9999999999991888 0.0
1.0 1.499999999998284 0.0
1.0 1.999999999996824 0.0
1.0 2.499999999995364 0.0
1.0 2.999999999993903 0.0
1.0 3.499999999992442 0.0
1.0 3.999999999991017 0.0
1.0 4.499999999991639 0.0
1.0 4.999999999992399 0.0
1.0 5.499999999993159 0.0
1.0 5.99999999999392 0.0
1.0 6.499999999994679 0.0
1.0 6.999999999995438 0.0
1.0 7.499999999996199 0.0
1.0 7.99999999999696 0.0
1.0 8.49999999999772 0.0
1.0 8.99999999999848 0.0
1.0 9.49999999999924 0.0
0.5000000000020595 10.0 0.0
0.0 9.5 0.0
0.0 8.999999999999998 0.0
0.0 8.499999999999998 0.0
0.0 7.999999999999996 0.0
0.0 7.499999999999995 0.0
0.0 6.999999999999995 0.0
0.0 6.499999999999996 0.0
0.0 5.999999999999996 0.0
0.0 5.499999999999996 0.0
0.0 4.999999999999996 0.0
0.0 4.499999999999997 0.0
0.0 3.999999999999996 0.0
0.0 3.499999999999997 0.0
0.0 2.999999999999998 0.0
0.0 2.499999999999998 0.0
0.0 1.999999999999998 0.0
0.0 1.5 0.0
0.0 0.9999999999999982 0.0
0.0 0.5 0.0
0.4999999999988605 0.4999999999997756 0.0
0.4999999999990288 0.9999999999995937 0.0
0.4999999999991972 1.499999999999142 0.0
0.4999999999993656 1.999999999998411 0.0
0.499999999999534 2.499999999997681 0.0
0.4999999999997023 2.999999999996951 0.0
0.4999999999998707 3.49999999999622 0.0
0.5000000000000391 3.999999999995507 0.0
0.5000000000002074 4.499999999995817 0.0
0.5000000000003758 4.999999999996198 0.0
0.5000000000005441 5.499999999996577 0.0
0.5000000000007125 5.999999999996958 0.0
0.500000000000881 6.499999999997339 0.0
0.5000000000010493 6.999999999997716 0.0
0.5000000000012177 7.499999999998098 0.0
0.500000000001386 7.999999999998479 0.0
0.5000000000015543 8.499999999998856 0.0
0.5000000000017226 8.99999999999924 0.0
0.5000000000018909 9.49999999999962 0.0
CELLS 40 200
4 0 4 44 43
4 43 44 45 42
4 42 45 46 41
4 41 46 47 40
4 40 47 48 39
4 39 48 49 38
4 38 49 50 37
4 37 50 51 36
4 36 51 52 35
4 35 52 53 34
4 34 53 54 33
4 33 54 55 32
4 32 55 56 31
4 31 56 57 30
4 30 57 58 29
4 29 58 59 28
4 28 59 60 27
4 27 60 61 26
4 26 61 62 25
4 25 62 24 3
4 4 1 5 44
4 44 5 6 45
4 45 6 7 46
4 46 7 8 47
4 47 8 9 48
4 48 9 10 49
4 49 10 11 50
4 50 11 12 51
4 51 12 13 52
4 52 13 14 53
4 53 14 15 54
4 54 15 16 55
4 55 16 17 56
4 56 17 18 57
4 57 18 19 58
4 58 19 20 59
4 59 20 21 60
4 60 21 22 61
4 61 22 23 62
4 62 23 2 24
CELL_TYPES 40
9
9
9
9
9
9
9
9
9
9
9
9
9
9
9
9
9
9
9
9
9
9
9
9
9
9
9
9
9
9
9
9
9
9
9
9
9
9
9
9
POINT_DATA 63
VECTORS displacement double
0.0 0.0 0.0
0.0 0.0 0.0
0.0 -1.3014836473140086 0.0
0.0 -1.3014836473135483 0.0
-6.2253527916788005e-16 0.0 0.0
0.0 -0.08749628786404243 0.0
0.0 -0.1750845897950487 0.0
0.0 -0.26206779683754877 0.0
0.0 -0.3480907051940714 0.0
0.0 -0.4322123029210612 0.0
0.0 -0.5140324354337462 0.0
0.0 -0.5932802769117574 0.0
0.0 -0.6699163326433923 0.0
0.0 -0.7442030063826169 0.0
0.0 -0.8156066980328616 0.0
0.0 -0.8830017047906185 0.0
0.0 -0.9449413323507094 0.0
0.0 -1.0004347369499336 0.0
0.0 -1.0491933043761212 0.0
0.0 -1.0916729431474594 0.0
0.0 -1.1297038905046628 0.0
0.0 -1.1657197326999902 0.0
0.0 -1.201909156903509 0.0
0.0 -1.241494663941411 0.0
3.993373985314046e-14 -1.265319077495975 0.0
0.0 -1.2414946639413704 0.0
0.0 -1.201909156903606 0.0
0.0 -1.1657197327001516 0.0
0.0 -1.1297038905048844 0.0
0.0 -1.0916729431477583 0.0
0.0 -1.0491933043765351 0.0
0.0 -1.000434736950486 0.0
0.0 -0.9449413323514214 0.0
0.0 -0.8830017047915035 0.0
0.0 -0.8156066980339193 0.0
0.0 -0.7442030063838365 0.0
0.0 -0.669916332644745 0.0
0.0 -0.5932802769129323 0.0
0.0 -0.5140324354347313 0.0
0.0 -0.43221230292183044 0.0
0.0 -0.34809070519461355 0.0
0.0 -0.26206779683785086 0.0
0.0 -0.1750845897951931 0.0
0.0 -0.08749628786412003 0.0
9.856551781923708e-16 -0.08768257939890589 0.0
2.363744265056184e-16 -0.17504919052951384 0.0
-8.572158571223925e-16 -0.26197100317711636 0.0
-6.060492296192391e-16 -0.34805552187588124 0.0
7.302615220185206e-16 -0.43220801944340265 0.0
4.171674507744172e-16 -0.5141118942116257 0.0
-2.161669824957156e-15 -0.5933273752790944 0.0
1.0988351230910018e-15 -0.6699665992272625 0.0
7.670381851828565e-16 -0.7441917978127965 0.0
-1.6409732166966223e-16 -0.8155541047807678 0.0
-7.747615847012089e-16 -0.8829458993927161 0.0
1.0747404996608264e-17 -0.9448583781213314 0.0
9.281629965697292e-16 -1.000397029334516 0.0
2.230425450580236e-16 -1.0491394788781594 0.0
8.033557613642078e-16 -1.0916754722652908 0.0
-6.695417898374207e-16 -1.129688339274516 0.0
-3.3685782690577103e-15 -1.1657477318855802 0.0
-8.246541483359499e-15 -1.2018273147309249 0.0
-3.74467388109606e-14 -1.2397272313119903 0.0
VECTORS velocity double
0.0 0.0 0.0
0.0 0.0 0.0
0.0 15.861050078946178 0.0
0.0 15.861050078949152 0.0
2.933091229438297e-14 0.0 0.0
0.0 0.6027490103176358 0.0
0.0 0.9284571308380398 0.0
0.0 1.0174901286015254 0.0
0.0 1.1010544759351344 0.0
0.0 1.3318814032128552 0.0
0.0 1.7991084966815993 0.0
0.0 2.7346685401125903 0.0
0.0 4.123561691995702 0.0
0.0 5.623765830493998 0.0
0.0 7.064073456365973 0.0
0.0 8.546711820923782 0.0
0.0 9.819119642051955 0.0
0.0 10.951039228376521 0.0
0.0 11.983501445849122 0.0
0.0 12.839730487821218 0.0
0.0 13.637790802529896 0.0
0.0 14.474340321151772 0.0
0.0 15.166006314684791 0.0
0.0 15.679924175453692 0.0
1.4911554544838404e-12 15.831681054951435 0.0
0.0 15.679924175455383 0.0
0.0 15.166006314687019 0.0
0.0 14.474340321155834 0.0
0.0 13.637790802535543 0.0
0.0 12.83973048782745 0.0
0.0 11.983501445858069 0.0
0.0 10.951039228387874 0.0
0.0 9.819119642064784 0.0
0.0 8.546711820942505 0.0
0.0 7.0640734563895435 0.0
0.0 5.623765830516048 0.0
0.0 4.123561692022937 0.0
0.0 2.7346685401311763 0.0
0.0 1.7991084966906197 0.0
0.0 1.3318814032155446 0.0
0.0 1.101054475936916 0.0
0.0 1.0174901286026667 0.0
0.0 0.9284571308386891 0.0
0.0 0.602749010317603 0.0
-4.631126124188203e-13 0.6472101025349644 0.0
4.920053233842513e-13 0.9484777227732373 0.0
-5.841020620494681e-13 1.0123721632000358 0.0
7.913165979814561e-13 1.1113296851955257 0.0
-1.3447137807779918e-13 1.2593121448357882 0.0
-9.13144655284766e-13 1.7730550241274958 0.0
1.0930437961027031e-12 2.762791305220258 0.0
-1.6653166480745187e-13 4.143553436925391 0.0
3.3355087397909547e-13 5.693035950192497 0.0
-9.085448921830468e-13 7.073733238028664 0.0
1.2281037613047046e-12 8.577322598571927 0.0
-7.202470599366759e-13 9.792949268318328 0.0
3.199022632742665e-14 10.932288346974659 0.0
2.522463116911531e-13 11.940098961508903 0.0
-8.015227399768624e-13 12.796783511777603 0.0
-3.7542061182033464e-13 13.596874110014 0.0
-3.2788562817826624e-13 14.426428820936353 0.0
5.859076135115233e-13 15.133031752079496 0.0
9.952807829540549e-13 15.633047999822185 0.0
VECTORS boundary_conditions double
1.0 1.0 0.0
1.0 1.0 0.0
1.0 0.0 0.0
1.0 0.0 0.0
0.0 1.0 0.0
1.0 0.0 0.0
1.0 0.0 0.0
1.0 0.0 0.0
1.0 0.0 0.0
1.0 0.0 0.0
1.0 0.0 0.0
1.0 0.0 0.0
1.0 0.0 0.0
1.0 0.0 0.0
1.0 0.0 0.0
1.0 0.0 0.0
1.0 0.0 0.0
1.0 0.0 0.0
1.0 0.0 0.0
1.0 0.0 0.0
1.0 0.0 0.0
1.0 0.0 0.0
1.0 0.0 0.0
1.0 0.0 0.0
0.0 0.0 0.0
1.0 0.0 0.0
1.0 0.0 0.0
1.0 0.0 0.0
1.0 0.0 0.0
1.0 0.0 0.0
1.0 0.0 0.0
1.0 0.0 0.0
1.0 0.0 0.0
1.0 0.0 0.0
1.0 0.0 0.0
1.0 0.0 0.0
1.0 0.0 0.0
1.0 0.0 0.0
1.0 0.0 0.0
1.0 0.0 0.0
1.0 0.0 0.0
1.0 0.0 0.0
1.0 0.0 0.0
1.0 0.0 0.0
0.0 0.0 0.0
0.0 0.0 0.0
0.0 0.0 0.0
0.0 0.0 0.0
0.0 0.0 0.0
0.0 0.0 0.0
0.0 0.0 0.0
0.0 0.0 0.0
0.0 0.0 0.0
0.0 0.0 0.0
0.0 0.0 0.0
0.0 0.0 0.0
0.0 0.0 0.0
0.0 0.0 0.0
0.0 0.0 0.0
0.0 0.0 0.0
0.0 0.0 0.0
0.0 0.0 0.0
0.0 0.0 0.0
CELL_DATA 40
SCALARS material_index double
LOOKUP_TABLE default
1.0
1.0
1.0
1.0
1.0
1.0
1.0
1.0
1.0
1.0
1.0
1.0
1.0
1.0
1.0
1.0
1.0
1.0
1.0
1.0
1.0
1.0
1.0
1.0
1.0
1.0
1.0
1.0
1.0
1.0
1.0
1.0
1.0
1.0
1.0
1.0
1.0
1.0
1.0
1.0
SCALARS material_prop_density double
LOOKUP_TABLE default
1500.0
1500.0
1500.0
1500.0
1500.0
1500.0
1500.0
1500.0
1500.0
1500.0
1500.0
1500.0
1500.0
1500.0
1500.0
1500.0
1500.0
1500.0
1500.0
1500.0
1500.0
1500.0
1500.0
1500.0
1500.0
1500.0
1500.0
1500.0
1500.0
1500.0
1500.0
1500.0
1500.0
1500.0
1500.0
1500.0
1500.0
1500.0
1500.0
1500.0
SCALARS material_prop_Young double
LOOKUP_TABLE default
30000000.0
30000000.0
30000000.0
30000000.0
30000000.0
30000000.0
30000000.0
30000000.0
30000000.0
30000000.0
30000000.0
30000000.0
30000000.0
30000000.0
30000000.0
30000000.0
30000000.0
30000000.0
30000000.0
30000000.0
30000000.0
30000000.0
30000000.0
30000000.0
30000000.0
30000000.0
30000000.0
30000000.0
30000000.0
30000000.0
30000000.0
30000000.0
30000000.0
30000000.0
30000000.0
30000000.0
30000000.0
30000000.0
30000000.0
30000000.0
SCALARS material_prop_poisson double
LOOKUP_TABLE default
0.2
0.2
0.2
0.2
0.2
0.2
0.2
0.2
0.2
0.2
0.2
0.2
0.2
0.2
0.2
0.2
0.2
0.2
0.2
0.2
0.2
0.2
0.2
0.2
0.2
0.2
0.2
0.2
0.2
0.2
0.2
0.2
0.2
0.2
0.2
0.2
0.2
0.2
0.2
0.2
