# vtk DataFile Version 2.0
data_196
ASCII
DATASET UNSTRUCTURED_GRID
POINTS 63 float
0.0 0.0 0.0
1.0 0.0 0.0
1.0 10.0 0.0
0.0 10.0 0.0
0.4999999999986921 0.0 0.0
1.0 0.499999999999551 0.0
1.0 0.9999999999991888 0.0
1.0 1.499999999998284 0.0
1.0 1.999999999996824 0.0
1.0 2.499999999995364 0.0
1.0 2.999999999993903 0.0
1.0 3.499999999992442 0.0
1.0 3.999999999991017 0.0
1.0 4.499999999991639 0.0
1.0 4.999999999992399 0.0
1.0 5.499999999993159 0.0
1.0 5.99999999999392 0.0
1.0 6.499999999994679 0.0
1.0 6.999999999995438 0.0
1.0 7.499999999996199 0.0
1.0 7.99999999999696 0.0
1.0 8.49999999999772 0.0
1.0 8.99999999999848 0.0
1.0 9.49999999999924 0.0
0.5000000000020595 10.0 0.0
0.0 9.5 0.0
0.0 8.999999999999998 0.0
0.0 8.499999999999998 0.0
0.0 7.999999999999996 0.0
0.0 7.499999999999995 0.0
0.0 6.999999999999995 0.0
0.0 6.499999999999996 0.0
0.0 5.999999999999996 0.0
0.0 5.499999999999996 0.0
0.0 4.999999999999996 0.0
0.0 4.499999999999997 0.0
0.0 3.999999999999996 0.0
0.0 3.499999999999997 0.0
0.0 2.999999999999998 0.0
0.0 2.499999999999998 0.0
0.0 1.999999999999998 0.0
0.0 1.5 0.0
0.0 0.9999999999999982 0.0
0.0 0.5 0.0
0.4999999999988605 0.4999999999997756 0.0
0.4999999999990288 0.9999999999995937 0.0
0.4999999999991972 1.499999999999142 0.0
0.4999999999993656 1.999999999998411 0.0
0.499999999999534 2.499999999997681 0.0
0.4999999999997023 2.999999999996951 0.0
0.4999999999998707 3.49999999999622 0.0
0.5000000000000391 3.999999999995507 0.0
0.5000000000002074 4.499999999995817 0.0
0.5000000000003758 4.999999999996198 0.0
0.5000000000005441 5.499999999996577 0.0
0.5000000000007125 5.999999999996958 0.0
0.500000000000881 6.499999999997339 0.0
0.5000000000010493 6.999999999997716 0.0
0.5000000000012177 7.499999999998098 0.0
0.500000000001386 7.999999999998479 0.0
0.5000000000015543 8.499999999998856 0.0
0.5000000000017226 8.99999999999924 0.0
0.5000000000018909 9.49999999999962 0.0
CELLS 40 200
4 0 4 44 43
4 43 44 45 42
4 42 45 46 41
4 41 46 47 40
4 40 47 48 39
4 39 48 49 38
4 38 49 50 37
4 37 50 51 36
4 36 51 52 35
4 35 52 53 34
4 34 53 54 33
4 33 54 55 32
4 32 55 56 31
4 31 56 57 30
4 30 57 58 29
4 29 58 59 28
4 28 59 60 27
4 27 60 61 26
4 26 61 62 25
4 25 62 24 3
4 4 1 5 44
4 44 5 6 45
4 45 6 7 46
4 46 7 8 47
4 47 8 9 48
4 48 9 10 49
4 49 10 11 50
4 50 11 12 51
4 51 12 13 52
4 52 13 14 53
4 53 14 15 54
4 54 15 16 55
4 55 16 17 56
4 56 17 18 57
4 57 18 19 58
4 58 19 20 59
4 59 20 21 60
4 60 21 22 61
4 61 22 23 62
4 62 23 2 24
CELL_TYPES 40
9
9
9
9
9
9
9
9
9
9
9
9
9
9
9
9
9
9
9
9
9
9
9
9
9
9
9
9
9
9
9
9
9
9
9
9
9
9
9
9
POINT_DATA 63
VECTORS displacement double
0.0 0.0 0.0
0.0 0.0 0.0
0.0 -1.447697859182544 0.0
0.0 -1.4476978591820782 0.0
5.2099321372877514e-17 0.0 0.0
0.0 -0.08941542993416451 0.0
0.0 -0.17791652698987193 0.0
0.0 -0.26489688703032455 0.0
0.0 -0.3500788470914034 0.0
0.0 -0.4334355702796456 0.0
0.0 -0.515042813175111 0.0
0.0 -0.594904834973955 0.0
0.0 -0.6728720430806839 0.0
0.0 -0.7486979960733476 0.0
0.0 -0.8221786182624621 0.0
0.0 -0.8932386738998114 0.0
0.0 -0.961984342785396 0.0
0.0 -1.0285958044220804 0.0
0.0 -1.093231120269493 0.0
0.0 -1.1560131691681794 0.0
0.0 -1.2168402239079479 0.0
0.0 -1.2752847200274453 0.0
0.0 -1.3307320546148704 0.0
0.0 -1.3832250935306611 0.0
3.778582918298875e-14 -1.4115178535127446 0.0
0.0 -1.3832250935306338 0.0
0.0 -1.3307320546150165 0.0
0.0 -1.275284720027703 0.0
0.0 -1.216840223908311 0.0
0.0 -1.1560131691686486 0.0
0.0 -1.093231120270074 0.0
0.0 -1.028595804422777 0.0
0.0 -0.961984342786217 0.0
0.0 -0.8932386739007662 0.0
0.0 -0.8221786182635598 0.0
0.0 -0.7486979960745952 0.0
0.0 -0.6728720430820648 0.0
0.0 -0.5949048349751483 0.0
0.0 -0.5150428131760966 0.0
0.0 -0.4334355702804109 0.0
0.0 -0.350078847091939 0.0
0.0 -0.264896887030621 0.0
0.0 -0.177916526990015 0.0
0.0 -0.08941542993424526 0.0
-8.27726051823261e-17 -0.08941588449952183 0.0
-1.076853875335892e-16 -0.17791923939020626 0.0
-1.6843926799927097e-16 -0.26489840590985686 0.0
9.250090213760305e-17 -0.35008316610301216 0.0
3.8902466730551493e-16 -0.433436210459646 0.0
3.580959704472721e-17 -0.5150439233868188 0.0
-1.3888440658894937e-16 -0.5948995354898866 0.0
1.8402821236232795e-16 -0.672865518115051 0.0
-1.512965227345357e-16 -0.7486901561028638 0.0
-2.625324657104394e-16 -0.8221703859322003 0.0
1.3118555455616758e-16 -0.89323420520476 0.0
-1.6927162869658013e-16 -0.9619863915872466 0.0
-4.4007728285633714e-16 -1.0286018043105563 0.0
3.9279124764741546e-16 -1.0932276280977091 0.0
3.456014524708996e-16 -1.1560088844780612 0.0
3.6668865839204593e-16 -1.2168430875890963 0.0
-9.6449090630679e-16 -1.2752789306213632 0.0
-7.102473375347343e-15 -1.3306406664267767 0.0
-3.8409592071600936e-14 -1.38141571764895 0.0
VECTORS velocity double
0.0 0.0 0.0
0.0 0.0 0.0
0.0 15.456552195354728 0.0
0.0 15.456552195357197 0.0
-1.9118024464029008e-13 0.0 0.0
0.0 0.7448951076546138 0.0
0.0 1.3466554019336967 0.0
0.0 1.6838360534411771 0.0
0.0 1.7623503869693744 0.0
0.0 1.6522687114006915 0.0
0.0 1.4864919456841097 0.0
0.0 1.4074317594004224 0.0
0.0 1.5532491505136612 0.0
0.0 2.0210638949057618 0.0
0.0 2.867528398868844 0.0
0.0 4.099781151451852 0.0
0.0 5.6880703688114576 0.0
0.0 7.515156247846889 0.0
0.0 9.441177023445345 0.0
0.0 11.280008080172289 0.0
0.0 12.867308983354974 0.0
0.0 14.07417879760308 0.0
0.0 14.876751467829795 0.0
0.0 15.318569234422135 0.0
7.151603344291462e-13 15.448846294371844 0.0
0.0 15.318569234424068 0.0
0.0 14.876751467833458 0.0
0.0 14.074178797608194 0.0
0.0 12.867308983363507 0.0
0.0 11.28000808018573 0.0
0.0 9.441177023462451 0.0
0.0 7.5151562478668055 0.0
0.0 5.688070368832518 0.0
0.0 4.0997811514714595 0.0
0.0 2.867528398885849 0.0
0.0 2.021063894917562 0.0
0.0 1.5532491505199175 0.0
0.0 1.4074317594009962 0.0
0.0 1.4864919456823387 0.0
0.0 1.6522687113993566 0.0
0.0 1.7623503869691532 0.0
0.0 1.6838360534418868 0.0
0.0 1.346655401934855 0.0
0.0 0.7448951076558461 0.0
-8.388393770999708e-14 0.7480288966250566 0.0
8.803921260613203e-14 1.351315943933764 0.0
9.843558393546663e-14 1.6899522718165514 0.0
-6.232311588159683e-14 1.766643792529412 0.0
9.629556942853758e-15 1.6548375396411386 0.0
1.0423683954890171e-13 1.4864540085379137 0.0
-8.055766776837032e-14 1.405182928548987 0.0
-2.707851473407029e-13 1.5504618555599414 0.0
-1.0638235703283847e-13 2.019225781361021 0.0
1.3974245873321134e-13 2.868742458166647 0.0
1.344031942201239e-13 4.100063220443598 0.0
2.3703710763670606e-13 5.684397625755395 0.0
2.343340936740799e-13 7.51644491121294 0.0
-7.811322463299164e-14 9.435826817839995 0.0
-1.2367967145267752e-13 11.271401834043674 0.0
-9.391538595725957e-15 12.862034342989322 0.0
-1.7936360867999428e-13 14.078718575534381 0.0
-3.5412036993846e-13 14.877313321323147 0.0
-2.2671755526432047e-13 15.31339788528496 0.0
VECTORS boundary_conditions double
1.0 1.0 0.0
1.0 1.0 0.0
1.0 0.0 0.0
1.0 0.0 0.0
0.0 1.0 0.0
1.0 0.0 0.0
1.0 0.0 0.0
1.0 0.0 0.0
1.0 0.0 0.0
1.0 0.0 0.0
1.0 0.0 0.0
1.0 0.0 0.0
1.0 0.0 0.0
1.0 0.0 0.0
1.0 0.0 0.0
1.0 0.0 0.0
1.0 0.0 0.0
1.0 0.0 0.0
1.0 0.0 0.0
1.0 0.0 0.0
1.0 0.0 0.0
1.0 0.0 0.0
1.0 0.0 0.0
1.0 0.0 0.0
0.0 0.0 0.0
1.0 0.0 0.0
1.0 0.0 0.0
1.0 0.0 0.0
1.0 0.0 0.0
1.0 0.0 0.0
1.0 0.0 0.0
1.0 0.0 0.0
1.0 0.0 0.0
1.0 0.0 0.0
1.0 0.0 0.0
1.0 0.0 0.0
1.0 0.0 0.0
1.0 0.0 0.0
1.0 0.0 0.0
1.0 0.0 0.0
1.0 0.0 0.0
1.0 0.0 0.0
1.0 0.0 0.0
1.0 0.0 0.0
0.0 0.0 0.0
0.0 0.0 0.0
0.0 0.0 0.0
0.0 0.0 0.0
0.0 0.0 0.0
0.0 0.0 0.0
0.0 0.0 0.0
0.0 0.0 0.0
0.0 0.0 0.0
0.0 0.0 0.0
0.0 0.0 0.0
0.0 0.0 0.0
0.0 0.0 0.0
0.0 0.0 0.0
0.0 0.0 0.0
0.0 0.0 0.0
0.0 0.0 0.0
0.0 0.0 0.0
0.0 0.0 0.0
CELL_DATA 40
SCALARS material_index double
LOOKUP_TABLE default
1.0
1.0
1.0
1.0
1.0
1.0
1.0
1.0
1.0
1.0
1.0
1.0
1.0
1.0
1.0
1.0
1.0
1.0
1.0
1.0
1.0
1.0
1.0
1.0
1.0
1.0
1.0
1.0
1.0
1.0
1.0
1.0
1.0
1.0
1.0
1.0
1.0
1.0
1.0
1.0
SCALARS material_prop_density double
LOOKUP_TABLE default
1500.0
1500.0
1500.0
1500.0
1500.0
1500.0
1500.0
1500.0
1500.0
1500.0
1500.0
1500.0
1500.0
1500.0
1500.0
1500.0
1500.0
1500.0
1500.0
1500.0
1500.0
1500.0
1500.0
1500.0
1500.0
1500.0
1500.0
1500.0
1500.0
1500.0
1500.0
1500.0
1500.0
1500.0
1500.0
1500.0
1500.0
1500.0
1500.0
1500.0
SCALARS material_prop_Young double
LOOKUP_TABLE default
30000000.0
30000000.0
30000000.0
30000000.0
30000000.0
30000000.0
30000000.0
30000000.0
30000000.0
30000000.0
30000000.0
30000000.0
30000000.0
30000000.0
30000000.0
30000000.0
30000000.0
30000000.0
30000000.0
30000000.0
30000000.0
30000000.0
30000000.0
30000000.0
30000000.0
30000000.0
30000000.0
30000000.0
30000000.0
30000000.0
30000000.0
30000000.0
30000000.0
30000000.0
30000000.0
30000000.0
30000000.0
30000000.0
30000000.0
30000000.0
SCALARS material_prop_poisson double
LOOKUP_TABLE default
0.2
0.2
0.2
0.2
0.2
0.2
0.2
0.2
0.2
0.2
0.2
0.2
0.2
0.2
0.2
0.2
0.2
0.2
0.2
0.2
0.2
0.2
0.2
0.2
0.2
0.2
0.2
0.2
0.2
0.2
0.2
0.2
0.2
0.2
0.2
0.2
0.2
0.2
0.2
0.2
