# vtk DataFile Version 2.0
data_199
ASCII
DATASET UNSTRUCTURED_GRID
POINTS 63 float
0.0 0.0 0.0
1.0 0.0 0.0
1.0 10.0 0.0
0.0 10.0 0.0
0.4999999999986921 0.0 0.0
1.0 0.499999999999551 0.0
1.0 0.9999999999991888 0.0
1.0 1.499999999998284 0.0
1.0 1.999999999996824 0.0
1.0 2.499999999995364 0.0
1.0 2.999999999993903 0.0
1.0 3.499999999992442 0.0
1.0 3.999999999991017 0.0
1.0 4.499999999991639 0.0
1.0 4.999999999992399 0.0
1.0 5.499999999993159 0.0
1.0 5.99999999999392 0.0
1.0 6.499999999994679 0.0
1.0 6.999999999995438 0.0
1.0 7.499999999996199 0.0
1.0 7.99999999999696 0.0
1.0 8.49999999999772 0.0
1.0 8.99999999999848 0.0
1.0 9.49999999999924 0.0
0.5000000000020595 10.0 0.0
0.0 9.5 0.0
0.0 8.999999999999998 0.0
0.0 8.499999999999998 0.0
0.0 7.999999999999996 0.0
0.0 7.499999999999995 0.0
0.0 6.999999999999995 0.0
0.0 6.499999999999996 0.0
0.0 5.999999999999996 0.0
0.0 5.499999999999996 0.0
0.0 4.999999999999996 0.0
0.0 4.499999999999997 0.0
0.0 3.999999999999996 0.0
0.0 3.499999999999997 0.0
0.0 2.999999999999998 0.0
0.0 2.499999999999998 0.0
0.0 1.999999999999998 0.0
0.0 1.5 0.0
0.0 0.9999999999999982 0.0
0.0 0.5 0.0
0.4999999999988605 0.4999999999997756 0.0
0.4999999999990288 0.9999999999995937 0.0
0.4999999999991972 1.499999999999142 0.0
0.4999999999993656 1.999999999998411 0.0
0.499999999999534 2.499999999997681 0.0
0.4999999999997023 2.999999999996951 0.0
0.4999999999998707 3.49999999999622 0.0
0.5000000000000391 3.999999999995507 0.0
0.5000000000002074 4.499999999995817 0.0
0.5000000000003758 4.999999999996198 0.0
0.5000000000005441 5.499999999996577 0.0
0.5000000000007125 5.999999999996958 0.0
0.500000000000881 6.499999999997339 0.0
0.5000000000010493 6.999999999997716 0.0
0.5000000000012177 7.499999999998098 0.0
0.500000000001386 7.999999999998479 0.0
0.5000000000015543 8.499999999998856 0.0
0.5000000000017226 8.99999999999924 0.0
0.5000000000018909 9.49999999999962 0.0
CELLS 40 200
4 0 4 44 43
4 43 44 45 42
4 42 45 46 41
4 41 46 47 40
4 40 47 48 39
4 39 48 49 38
4 38 49 50 37
4 37 50 51 36
4 36 51 52 35
4 35 52 53 34
4 34 53 54 33
4 33 54 55 32
4 32 55 56 31
4 31 56 57 30
4 30 57 58 29
4 29 58 59 28
4 28 59 60 27
4 27 60 61 26
4 26 61 62 25
4 25 62 24 3
4 4 1 5 44
4 44 5 6 45
4 45 6 7 46
4 46 7 8 47
4 47 8 9 48
4 48 9 10 49
4 49 10 11 50
4 50 11 12 51
4 51 12 13 52
4 52 13 14 53
4 53 14 15 54
4 54 15 16 55
4 55 16 17 56
4 56 17 18 57
4 57 18 19 58
4 58 19 20 59
4 59 20 21 60
4 60 21 22 61
4 61 22 23 62
4 62 23 2 24
CELL_TYPES 40
9
9
9
9
9
9
9
9
9
9
9
9
9
9
9
9
9
9
9
9
9
9
9
9
9
9
9
9
9
9
9
9
9
9
9
9
9
9
9
9
POINT_DATA 63
VECTORS displacement double
0.0 0.0 0.0
0.0 0.0 0.0
0.0 -1.1931550702756033 0.0
0.0 -1.1931550702751461 0.0
4.0790257557982352e-16 0.0 0.0
0.0 -0.07753566257572546 0.0
0.0 -0.15560975395113982 0.0
0.0 -0.23446626354658975 0.0
0.0 -0.3137621552819559 0.0
0.0 -0.3926182619489139 0.0
0.0 -0.46981026505655005 0.0
0.0 -0.5440501852430463 0.0
0.0 -0.6142255641440304 0.0
0.0 -0.6795660489236017 0.0
0.0 -0.7397068360569921 0.0
0.0 -0.7946860009177068 0.0
0.0 -0.8449019778131349 0.0
0.0 -0.8909950668471677 0.0
0.0 -0.93371867962759 0.0
0.0 -0.9740104543216748 0.0
0.0 -1.0128642732175017 0.0
0.0 -1.051325576135898 0.0
0.0 -1.0905551266548896 0.0
0.0 -1.1324014454354412 0.0
3.694986413841324e-14 -1.1569754967212822 0.0
0.0 -1.13240144543541 0.0
0.0 -1.0905551266549975 0.0
0.0 -1.051325576136073 0.0
0.0 -1.0128642732177355 0.0
0.0 -0.9740104543219724 0.0
0.0 -0.9337186796279654 0.0
0.0 -0.8909950668476364 0.0
0.0 -0.8449019778137165 0.0
0.0 -0.7946860009184247 0.0
0.0 -0.7397068360578674 0.0
0.0 -0.6795660489246541 0.0
0.0 -0.6142255641452515 0.0
0.0 -0.5440501852441415 0.0
0.0 -0.4698102650574775 0.0
0.0 -0.39261826194964017 0.0
0.0 -0.3137621552824593 0.0
0.0 -0.23446626354686195 0.0
0.0 -0.15560975395126783 0.0
0.0 -0.07753566257579629 0.0
4.737036858766085e-17 -0.07753680990825197 0.0
-1.5169303816651112e-16 -0.15561316068242156 0.0
-2.597712178180588e-16 -0.23446920685660635 0.0
-1.3040206676924415e-16 -0.3137667663984158 0.0
9.189634865596218e-17 -0.3926202921131001 0.0
-7.083792143065556e-17 -0.4698107378773721 0.0
2.6607989599366033e-16 -0.5440458528493279 0.0
1.2481913534140504e-15 -0.6142191427769841 0.0
-4.2295596391894724e-17 -0.6795588482270991 0.0
-5.865579769274335e-16 -0.7396980573272087 0.0
-3.641249606158326e-16 -0.7946811671650316 0.0
-4.09073102683402e-16 -0.8449057697588206 0.0
-5.787683053322737e-16 -0.8909964100085204 0.0
1.9236512908968604e-16 -0.933715011204041 0.0
1.300436838522906e-16 -0.9740071418481163 0.0
2.1947825885705053e-16 -1.0128661346394725 0.0
-4.791761417057306e-16 -1.051316877684167 0.0
-6.2143244480667034e-15 -1.0904628846881597 0.0
-3.790340635743573e-14 -1.1305906031590727 0.0
VECTORS velocity double
0.0 0.0 0.0
0.0 0.0 0.0
0.0 16.93764078544616 0.0
0.0 16.937640785444493 0.0
-4.514494465427466e-14 0.0 0.0
0.0 0.49571127940647464 0.0
0.0 1.1070019972025698 0.0
0.0 1.868814206720883 0.0
0.0 2.7738462629319285 0.0
0.0 3.7754759758406067 0.0
0.0 4.81169323471653 0.0
0.0 5.833200753684288 0.0
0.0 6.820751445778525 0.0
0.0 7.769174704129311 0.0
0.0 8.676378619173022 0.0
0.0 9.5237094732212 0.0
0.0 10.323993942245515 0.0
0.0 11.116756152706284 0.0
0.0 11.970299741651196 0.0
0.0 12.926617854886468 0.0
0.0 13.97941007782373 0.0
0.0 15.052208296564247 0.0
0.0 16.014376975205884 0.0
0.0 16.6899974142461 0.0
-2.7682834297595453e-13 16.928417323915493 0.0
0.0 16.68999741424568 0.0
0.0 16.01437697520772 0.0
0.0 15.05220829656757 0.0
0.0 13.979410077829407 0.0
0.0 12.926617854894388 0.0
0.0 11.970299741660156 0.0
0.0 11.116756152715503 0.0
0.0 10.323993942255054 0.0
0.0 9.523709473231968 0.0
0.0 8.676378619186437 0.0
0.0 7.769174704144511 0.0
0.0 6.820751445795938 0.0
0.0 5.833200753699257 0.0
0.0 4.811693234728782 0.0
0.0 3.775475975850024 0.0
0.0 2.773846262937856 0.0
0.0 1.868814206723449 0.0
0.0 1.1070019972033323 0.0
0.0 0.49571127940692983 0.0
-1.0957231342188907e-14 0.49791023209433005 0.0
-2.669521475418025e-14 1.1121376552092421 0.0
-5.257758440287689e-15 1.8727822589095013 0.0
9.10046852225095e-15 2.7791568866587824 0.0
1.5078903883825826e-13 3.7762463258120293 0.0
2.2529082133525724e-13 4.813368054537465 0.0
-5.533975774624856e-16 5.830450981602464 0.0
-1.602142601629522e-13 6.819211662914055 0.0
-1.5547470466151523e-13 7.768751406191489 0.0
-5.28341948415212e-14 8.677767577787947 0.0
-4.66863003650785e-14 9.5236177482349 0.0
-8.30805310602927e-14 10.321719459136975 0.0
9.639065223007654e-14 11.119131728544428 0.0
1.0592761843223832e-14 11.964258992806325 0.0
3.386722309147414e-13 12.917080971172984 0.0
3.513723667115801e-13 13.977908264423704 0.0
-7.262937727095226e-14 15.054286876682461 0.0
-1.560101567987416e-13 16.01453239693237 0.0
-1.1660840738686033e-13 16.6866404674732 0.0
VECTORS boundary_conditions double
1.0 1.0 0.0
1.0 1.0 0.0
1.0 0.0 0.0
1.0 0.0 0.0
0.0 1.0 0.0
1.0 0.0 0.0
1.0 0.0 0.0
1.0 0.0 0.0
1.0 0.0 0.0
1.0 0.0 0.0
1.0 0.0 0.0
1.0 0.0 0.0
1.0 0.0 0.0
1.0 0.0 0.0
1.0 0.0 0.0
1.0 0.0 0.0
1.0 0.0 0.0
1.0 0.0 0.0
1.0 0.0 0.0
1.0 0.0 0.0
1.0 0.0 0.0
1.0 0.0 0.0
1.0 0.0 0.0
1.0 0.0 0.0
0.0 0.0 0.0
1.0 0.0 0.0
1.0 0.0 0.0
1.0 0.0 0.0
1.0 0.0 0.0
1.0 0.0 0.0
1.0 0.0 0.0
1.0 0.0 0.0
1.0 0.0 0.0
1.0 0.0 0.0
1.0 0.0 0.0
1.0 0.0 0.0
1.0 0.0 0.0
1.0 0.0 0.0
1.0 0.0 0.0
1.0 0.0 0.0
1.0 0.0 0.0
1.0 0.0 0.0
1.0 0.0 0.0
1.0 0.0 0.0
0.0 0.0 0.0
0.0 0.0 0.0
0.0 0.0 0.0
0.0 0.0 0.0
0.0 0.0 0.0
0.0 0.0 0.0
0.0 0.0 0.0
0.0 0.0 0.0
0.0 0.0 0.0
0.0 0.0 0.0
0.0 0.0 0.0
0.0 0.0 0.0
0.0 0.0 0.0
0.0 0.0 0.0
0.0 0.0 0.0
0.0 0.0 0.0
0.0 0.0 0.0
0.0 0.0 0.0
0.0 0.0 0.0
CELL_DATA 40
SCALARS material_index double
LOOKUP_TABLE default
1.0
1.0
1.0
1.0
1.0
1.0
1.0
1.0
1.0
1.0
1.0
1.0
1.0
1.0
1.0
1.0
1.0
1.0
1.0
1.0
1.0
1.0
1.0
1.0
1.0
1.0
1.0
1.0
1.0
1.0
1.0
1.0
1.0
1.0
1.0
1.0
1.0
1.0
1.0
1.0
SCALARS material_prop_density double
LOOKUP_TABLE default
1500.0
1500.0
1500.0
1500.0
1500.0
1500.0
1500.0
1500.0
1500.0
1500.0
1500.0
1500.0
1500.0
1500.0
1500.0
1500.0
1500.0
1500.0
1500.0
1500.0
1500.0
1500.0
1500.0
1500.0
1500.0
1500.0
1500.0
1500.0
1500.0
1500.0
1500.0
1500.0
1500.0
1500.0
1500.0
1500.0
1500.0
1500.0
1500.0
1500.0
SCALARS material_prop_Young double
LOOKUP_TABLE default
30000000.0
30000000.0
30000000.0
30000000.0
30000000.0
30000000.0
30000000.0
30000000.0
30000000.0
30000000.0
30000000.0
30000000.0
30000000.0
30000000.0
30000000.0
30000000.0
30000000.0
30000000.0
30000000.0
30000000.0
30000000.0
30000000.0
30000000.0
30000000.0
30000000.0
30000000.0
30000000.0
30000000.0
30000000.0
30000000.0
30000000.0
30000000.0
30000000.0
30000000.0
30000000.0
30000000.0
30000000.0
30000000.0
30000000.0
30000000.0
SCALARS material_prop_poisson double
LOOKUP_TABLE default
0.2
0.2
0.2
0.2
0.2
0.2
0.2
0.2
0.2
0.2
0.2
0.2
0.2
0.2
0.2
0.2
0.2
0.2
0.2
0.2
0.2
0.2
0.2
0.2
0.2
0.2
0.2
0.2
0.2
0.2
0.2
0.2
0.2
0.2
0.2
0.2
0.2
0.2
0.2
0.2
