# vtk DataFile Version 2.0
data_50
ASCII
DATASET UNSTRUCTURED_GRID
POINTS 63 float
0.0 0.0 0.0
1.0 0.0 0.0
1.0 10.0 0.0
0.0 10.0 0.0
0.4999999999986921 0.0 0.0
1.0 0.499999999999551 0.0
1.0 0.9999999999991888 0.0
1.0 1.499999999998284 0.0
1.0 1.999999999996824 0.0
1.0 2.499999999995364 0.0
1.0 2.999999999993903 0.0
1.0 3.499999999992442 0.0
1.0 3.999999999991017 0.0
1.0 4.499999999991639 0.0
1.0 4.999999999992399 0.0
1.0 5.499999999993159 0.0
1.0 5.99999999999392 0.0
1.0 6.499999999994679 0.0
1.0 6.999999999995438 0.0
1.0 7.499999999996199 0.0
1.0 7.99999999999696 0.0
1.0 8.49999999999772 0.0
1.0 8.99999999999848 0.0
1.0 9.49999999999924 0.0
0.5000000000020595 10.0 0.0
0.0 9.5 0.0
0.0 8.999999999999998 0.0
0.0 8.499999999999998 0.0
0.0 7.999999999999996 0.0
0.0 7.499999999999995 0.0
0.0 6.999999999999995 0.0
0.0 6.499999999999996 0.0
0.0 5.999999999999996 0.0
0.0 5.499999999999996 0.0
0.0 4.999999999999996 0.0
0.0 4.499999999999997 0.0
0.0 3.999999999999996 0.0
0.0 3.499999999999997 0.0
0.0 2.999999999999998 0.0
0.0 2.499999999999998 0.0
0.0 1.999999999999998 0.0
0.0 1.5 0.0
0.0 0.9999999999999982 0.0
0.0 0.5 0.0
0.4999999999988605 0.4999999999997756 0.0
0.4999999999990288 0.9999999999995937 0.0
0.4999999999991972 1.499999999999142 0.0
0.4999999999993656 1.999999999998411 0.0
0.499999999999534 2.499999999997681 0.0
0.4999999999997023 2.999999999996951 0.0
0.4999999999998707 3.49999999999622 0.0
0.5000000000000391 3.999999999995507 0.0
0.5000000000002074 4.499999999995817 0.0
0.5000000000003758 4.999999999996198 0.0
0.5000000000005441 5.499999999996577 0.0
0.5000000000007125 5.999999999996958 0.0
0.500000000000881 6.499999999997339 0.0
0.5000000000010493 6.999999999997716 0.0
0.5000000000012177 7.499999999998098 0.0
0.500000000001386 7.999999999998479 0.0
0.5000000000015543 8.499999999998856 0.0
0.5000000000017226 8.99999999999924 0.0
0.5000000000018909 9.49999999999962 0.0
CELLS 40 200
4 0 4 44 43
4 43 44 45 42
4 42 45 46 41
4 41 46 47 40
4 40 47 48 39
4 39 48 49 38
4 38 49 50 37
4 37 50 51 36
4 36 51 52 35
4 35 52 53 34
4 34 53 54 33
4 33 54 55 32
4 32 55 56 31
4 31 56 57 30
4 30 57 58 29
4 29 58 59 28
4 28 59 60 27
4 27 60 61 26
4 26 61 62 25
4 25 62 24 3
4 4 1 5 44
4 44 5 6 45
4 45 6 7 46
4 46 7 8 47
4 47 8 9 48
4 48 9 10 49
4 49 10 11 50
4 50 11 12 51
4 51 12 13 52
4 52 13 14 53
4 53 14 15 54
4 54 15 16 55
4 55 16 17 56
4 56 17 18 57
4 57 18 19 58
4 58 19 20 59
4 59 20 21 60
4 60 21 22 61
4 61 22 23 62
4 62 23 2 24
CELL_TYPES 40
9
9
9
9
9
9
9
9
9
9
9
9
9
9
9
9
9
9
9
9
9
9
9
9
9
9
9
9
9
9
9
9
9
9
9
9
9
9
9
9
POINT_DATA 63
VECTORS displacement double
0.0 0.0 0.0
0.0 0.0 0.0
0.0 -0.404724399991952 0.0
0.0 -0.4047243999914944 0.0
-9.301865203626432e-16 0.0 0.0
0.0 -0.004415145999246324 0.0
0.0 -0.0060081530941315416 0.0
0.0 -0.003970629916653728 0.0
0.0 0.001882157527907664 0.0
0.0 0.009418073547391954 0.0
0.0 0.01495937839987377 0.0
0.0 0.016592275428172674 0.0
0.0 0.012181610759296446 0.0
0.0 0.0011892844386147162 0.0
0.0 -0.015593987724423294 0.0
0.0 -0.0380681164103696 0.0
0.0 -0.06530177450909917 0.0
0.0 -0.09747782819069228 0.0
0.0 -0.13311189122975617 0.0
0.0 -0.1716278586434222 0.0
0.0 -0.21255307012582003 0.0
0.0 -0.25493950465935883 0.0
0.0 -0.29831568196824426 0.0
0.0 -0.34289431647641466 0.0
3.607253048583041e-14 -0.3686960004200013 0.0
0.0 -0.3428943164763889 0.0
0.0 -0.2983156819683667 0.0
0.0 -0.25493950465956117 0.0
0.0 -0.21255307012607838 0.0
0.0 -0.17162785864372898 0.0
0.0 -0.13311189123009923 0.0
0.0 -0.09747782819106277 0.0
0.0 -0.06530177450946431 0.0
0.0 -0.038068116410709875 0.0
0.0 -0.015593987724724857 0.0
0.0 0.0011892844383812192 0.0
0.0 0.012181610759158617 0.0
0.0 0.016592275428162235 0.0
0.0 0.014959378399919607 0.0
0.0 0.009418073547462519 0.0
0.0 0.0018821575279587782 0.0
0.0 -0.003970629916646587 0.0
0.0 -0.006008153094133143 0.0
0.0 -0.0044151459992454204 0.0
1.176465282580698e-16 -0.004414528931827149 0.0
1.0771560111948776e-15 -0.006009095411360059 0.0
1.3344950211798777e-16 -0.003973823556483084 0.0
-3.2993859491507744e-15 0.0018934057831656676 0.0
3.5031853115573807e-15 0.009424092153515556 0.0
2.608353241690365e-16 0.014896064259627027 0.0
-2.4709145793733972e-15 0.016616908701464865 0.0
1.8882061372593024e-16 0.012376694561196869 0.0
1.2962160720498984e-15 0.0010454566052328046 0.0
-9.29167940826044e-17 -0.01590746697074239 0.0
-1.3245931069972384e-15 -0.03789649491000891 0.0
1.8113575624361724e-15 -0.06511431357916145 0.0
4.6508167392772e-16 -0.09728671982613417 0.0
1.984869505807038e-16 -0.13300156310444655 0.0
-2.9084833230581576e-16 -0.17175613817662838 0.0
3.5665096649315633e-16 -0.21264109164846515 0.0
-1.1097446529445932e-15 -0.2552124580747494 0.0
-6.810197195574367e-15 -0.2983740160816255 0.0
-3.781812506863616e-14 -0.3413744697855037 0.0
VECTORS velocity double
0.0 0.0 0.0
0.0 0.0 0.0
0.0 13.038479484933003 0.0
0.0 13.038479484931074 0.0
3.4880280453994885e-12 0.0 0.0
0.0 -0.9301316431672397 0.0
0.0 -1.3473060400341086 0.0
0.0 -1.7781961608046468 0.0
0.0 -1.7274928639073415 0.0
0.0 -1.2626153469887558 0.0
0.0 -0.6829281388059005 0.0
0.0 0.23911495926226412 0.0
0.0 1.729985820648281 0.0
0.0 3.818136532312959 0.0
0.0 5.4305316112473285 0.0
0.0 7.294049343290135 0.0
0.0 9.104778925131226 0.0
0.0 10.1321656657962 0.0
0.0 11.091443294226561 0.0
0.0 11.629511451731458 0.0
0.0 12.395229730535132 0.0
0.0 12.615663720794084 0.0
0.0 12.886593106148718 0.0
0.0 12.889415868468937 0.0
-4.882252965191792e-13 13.05578963584842 0.0
0.0 12.889415868469356 0.0
0.0 12.886593106147185 0.0
0.0 12.615663720795594 0.0
0.0 12.395229730537075 0.0
0.0 11.62951145173819 0.0
0.0 11.091443294231393 0.0
0.0 10.132165665807245 0.0
0.0 9.104778925147654 0.0
0.0 7.294049343317125 0.0
0.0 5.430531611268755 0.0
0.0 3.81813653234809 0.0
0.0 1.7299858206806524 0.0
0.0 0.23911495927662063 0.0
0.0 -0.6829281387953005 0.0
0.0 -1.2626153469835228 0.0
0.0 -1.7274928639051919 0.0
0.0 -1.7781961608061563 0.0
0.0 -1.3473060400332342 0.0
0.0 -0.9301316431684088 0.0
-2.477844422685961e-12 -0.9300166677425235 0.0
-1.9657792696053838e-13 -1.3488069376820184 0.0
2.024935896949329e-12 -1.776035148382661 0.0
-1.5058603605726607e-12 -1.7202054380192153 0.0
-1.8679387345460353e-13 -1.2857710585059199 0.0
1.2917171323245296e-13 -0.6932869446259671 0.0
2.3363095382134763e-12 0.3450114376498816 0.0
-2.6717803141582188e-12 1.684271479931705 0.0
1.0155519550334352e-12 3.5803146494043396 0.0
2.2588669556011074e-13 5.604278207116286 0.0
-2.127972859181632e-13 7.508598928031994 0.0
-3.270043390466181e-13 9.047015187133685 0.0
2.3263470669965115e-13 10.146040604622103 0.0
2.349376122967094e-13 10.855955835330176 0.0
-1.1323993840063447e-12 11.552191025660246 0.0
7.469899743450474e-13 12.255627486995406 0.0
-1.014443744816138e-13 12.5807962956997 0.0
5.024170157006558e-13 12.863401370849173 0.0
-3.141996515168053e-13 12.890905510873772 0.0
VECTORS boundary_conditions double
1.0 1.0 0.0
1.0 1.0 0.0
1.0 0.0 0.0
1.0 0.0 0.0
0.0 1.0 0.0
1.0 0.0 0.0
1.0 0.0 0.0
1.0 0.0 0.0
1.0 0.0 0.0
1.0 0.0 0.0
1.0 0.0 0.0
1.0 0.0 0.0
1.0 0.0 0.0
1.0 0.0 0.0
1.0 0.0 0.0
1.0 0.0 0.0
1.0 0.0 0.0
1.0 0.0 0.0
1.0 0.0 0.0
1.0 0.0 0.0
1.0 0.0 0.0
1.0 0.0 0.0
1.0 0.0 0.0
1.0 0.0 0.0
0.0 0.0 0.0
1.0 0.0 0.0
1.0 0.0 0.0
1.0 0.0 0.0
1.0 0.0 0.0
1.0 0.0 0.0
1.0 0.0 0.0
1.0 0.0 0.0
1.0 0.0 0.0
1.0 0.0 0.0
1.0 0.0 0.0
1.0 0.0 0.0
1.0 0.0 0.0
1.0 0.0 0.0
1.0 0.0 0.0
1.0 0.0 0.0
1.0 0.0 0.0
1.0 0.0 0.0
1.0 0.0 0.0
1.0 0.0 0.0
0.0 0.0 0.0
0.0 0.0 0.0
0.0 0.0 0.0
0.0 0.0 0.0
0.0 0.0 0.0
0.0 0.0 0.0
0.0 0.0 0.0
0.0 0.0 0.0
0.0 0.0 0.0
0.0 0.0 0.0
0.0 0.0 0.0
0.0 0.0 0.0
0.0 0.0 0.0
0.0 0.0 0.0
0.0 0.0 0.0
0.0 0.0 0.0
0.0 0.0 0.0
0.0 0.0 0.0
0.0 0.0 0.0
CELL_DATA 40
SCALARS material_index double
LOOKUP_TABLE default
1.0
1.0
1.0
1.0
1.0
1.0
1.0
1.0
1.0
1.0
1.0
1.0
1.0
1.0
1.0
1.0
1.0
1.0
1.0
1.0
1.0
1.0
1.0
1.0
1.0
1.0
1.0
1.0
1.0
1.0
1.0
1.0
1.0
1.0
1.0
1.0
1.0
1.0
1.0
1.0
SCALARS material_prop_density double
LOOKUP_TABLE default
1500.0
1500.0
1500.0
1500.0
1500.0
1500.0
1500.0
1500.0
1500.0
1500.0
1500.0
1500.0
1500.0
1500.0
1500.0
1500.0
1500.0
1500.0
1500.0
1500.0
1500.0
1500.0
1500.0
1500.0
1500.0
1500.0
1500.0
1500.0
1500.0
1500.0
1500.0
1500.0
1500.0
1500.0
1500.0
1500.0
1500.0
1500.0
1500.0
1500.0
SCALARS material_prop_Young double
LOOKUP_TABLE default
30000000.0
30000000.0
30000000.0
30000000.0
30000000.0
30000000.0
30000000.0
30000000.0
30000000.0
30000000.0
30000000.0
30000000.0
30000000.0
30000000.0
30000000.0
30000000.0
30000000.0
30000000.0
30000000.0
30000000.0
30000000.0
30000000.0
30000000.0
30000000.0
30000000.0
30000000.0
30000000.0
30000000.0
30000000.0
30000000.0
30000000.0
30000000.0
30000000.0
30000000.0
30000000.0
30000000.0
30000000.0
30000000.0
30000000.0
30000000.0
SCALARS material_prop_poisson double
LOOKUP_TABLE default
0.2
0.2
0.2
0.2
0.2
0.2
0.2
0.2
0.2
0.2
0.2
0.2
0.2
0.2
0.2
0.2
0.2
0.2
0.2
0.2
0.2
0.2
0.2
0.2
0.2
0.2
0.2
0.2
0.2
0.2
0.2
0.2
0.2
0.2
0.2
0.2
0.2
0.2
0.2
0.2
