# vtk DataFile Version 2.0
data_146
ASCII
DATASET UNSTRUCTURED_GRID
POINTS 63 float
0.0 0.0 0.0
1.0 0.0 0.0
1.0 10.0 0.0
0.0 10.0 0.0
0.4999999999986921 0.0 0.0
1.0 0.499999999999551 0.0
1.0 0.9999999999991888 0.0
1.0 1.499999999998284 0.0
1.0 1.999999999996824 0.0
1.0 2.499999999995364 0.0
1.0 2.999999999993903 0.0
1.0 3.499999999992442 0.0
1.0 3.999999999991017 0.0
1.0 4.499999999991639 0.0
1.0 4.999999999992399 0.0
1.0 5.499999999993159 0.0
1.0 5.99999999999392 0.0
1.0 6.499999999994679 0.0
1.0 6.999999999995438 0.0
1.0 7.499999999996199 0.0
1.0 7.99999999999696 0.0
1.0 8.49999999999772 0.0
1.0 8.99999999999848 0.0
1.0 9.49999999999924 0.0
0.5000000000020595 10.0 0.0
0.0 9.5 0.0
0.0 8.999999999999998 0.0
0.0 8.499999999999998 0.0
0.0 7.999999999999996 0.0
0.0 7.499999999999995 0.0
0.0 6.999999999999995 0.0
0.0 6.499999999999996 0.0
0.0 5.999999999999996 0.0
0.0 5.499999999999996 0.0
0.0 4.999999999999996 0.0
0.0 4.499999999999997 0.0
0.0 3.999999999999996 0.0
0.0 3.499999999999997 0.0
0.0 2.999999999999998 0.0
0.0 2.499999999999998 0.0
0.0 1.999999999999998 0.0
0.0 1.5 0.0
0.0 0.9999999999999982 0.0
0.0 0.5 0.0
0.4999999999988605 0.4999999999997756 0.0
0.4999999999990288 0.9999999999995937 0.0
0.4999999999991972 1.499999999999142 0.0
0.4999999999993656 1.999999999998411 0.0
0.499999999999534 2.499999999997681 0.0
0.4999999999997023 2.999999999996951 0.0
0.4999999999998707 3.49999999999622 0.0
0.5000000000000391 3.999999999995507 0.0
0.5000000000002074 4.499999999995817 0.0
0.5000000000003758 4.999999999996198 0.0
0.5000000000005441 5.499999999996577 0.0
0.5000000000007125 5.999999999996958 0.0
0.500000000000881 6.499999999997339 0.0
0.5000000000010493 6.999999999997716 0.0
0.5000000000012177 7.499999999998098 0.0
0.500000000001386 7.999999999998479 0.0
0.5000000000015543 8.499999999998856 0.0
0.5000000000017226 8.99999999999924 0.0
0.5000000000018909 9.49999999999962 0.0
CELLS 40 200
4 0 4 44 43
4 43 44 45 42
4 42 45 46 41
4 41 46 47 40
4 40 47 48 39
4 39 48 49 38
4 38 49 50 37
4 37 50 51 36
4 36 51 52 35
4 35 52 53 34
4 34 53 54 33
4 33 54 55 32
4 32 55 56 31
4 31 56 57 30
4 30 57 58 29
4 29 58 59 28
4 28 59 60 27
4 27 60 61 26
4 26 61 62 25
4 25 62 24 3
4 4 1 5 44
4 44 5 6 45
4 45 6 7 46
4 46 7 8 47
4 47 8 9 48
4 48 9 10 49
4 49 10 11 50
4 50 11 12 51
4 51 12 13 52
4 52 13 14 53
4 53 14 15 54
4 54 15 16 55
4 55 16 17 56
4 56 17 18 57
4 57 18 19 58
4 58 19 20 59
4 59 20 21 60
4 60 21 22 61
4 61 22 23 62
4 62 23 2 24
CELL_TYPES 40
9
9
9
9
9
9
9
9
9
9
9
9
9
9
9
9
9
9
9
9
9
9
9
9
9
9
9
9
9
9
9
9
9
9
9
9
9
9
9
9
POINT_DATA 63
VECTORS displacement double
0.0 0.0 0.0
0.0 0.0 0.0
0.0 -1.1342621287149701 0.0
0.0 -1.134262128714515 0.0
1.500453321677999e-16 0.0 0.0
0.0 -0.08218419895039163 0.0
0.0 -0.1627780670551974 0.0
0.0 -0.24072801653595785 0.0
0.0 -0.31561170663386195 0.0
0.0 -0.38748332749730124 0.0
0.0 -0.45676589127834144 0.0
0.0 -0.5237872784723829 0.0
0.0 -0.5885282053885973 0.0
0.0 -0.6503671419506266 0.0
0.0 -0.7084186563488793 0.0
0.0 -0.7620404782296231 0.0
0.0 -0.8107532483811573 0.0
0.0 -0.8545393436315599 0.0
0.0 -0.8940398183689721 0.0
0.0 -0.9302669586456902 0.0
0.0 -0.9646436933965069 0.0
0.0 -0.998879398031903 0.0
0.0 -1.034706275191178 0.0
0.0 -1.0743018757191742 0.0
3.596019652835503e-14 -1.0980864519065425 0.0
0.0 -1.0743018757191405 0.0
0.0 -1.034706275191278 0.0
0.0 -0.998879398032061 0.0
0.0 -0.9646436933967154 0.0
0.0 -0.9302669586459572 0.0
0.0 -0.8940398183693162 0.0
0.0 -0.8545393436320021 0.0
0.0 -0.8107532483817185 0.0
0.0 -0.7620404782303246 0.0
0.0 -0.708418656349731 0.0
0.0 -0.6503671419516304 0.0
0.0 -0.5885282053897365 0.0
0.0 -0.5237872784733799 0.0
0.0 -0.45676589127917294 0.0
0.0 -0.3874833274979542 0.0
0.0 -0.31561170663432697 0.0
0.0 -0.24072801653621942 0.0
0.0 -0.1627780670553265 0.0
0.0 -0.08218419895046476 0.0
1.6169532175152076e-16 -0.08219912483653638 0.0
-7.741345815882173e-16 -0.1628026275459444 0.0
-4.790702055710168e-16 -0.24074314980772438 0.0
3.421077804175048e-16 -0.315615740686533 0.0
7.186755444019504e-16 -0.3874785903626394 0.0
4.581636362577137e-16 -0.45675955472366203 0.0
-4.50085289953232e-16 -0.5237917351653947 0.0
-1.4402207924008274e-16 -0.5885336942968358 0.0
2.1159581327154663e-16 -0.6503524287924826 0.0
2.768101617761192e-16 -0.7083994367156596 0.0
-4.875535589631689e-16 -0.7620033094857551 0.0
1.5852422369997189e-16 -0.8107485270007194 0.0
1.066854019045666e-16 -0.8545489109381762 0.0
-1.2794690056252451e-16 -0.8940242204230116 0.0
5.436071796912523e-16 -0.9302498948624154 0.0
3.8210716807360017e-16 -0.9646502550098712 0.0
-1.0100960600016e-15 -0.9988787707277684 0.0
-6.267294865976063e-15 -1.0346120110286197 0.0
-3.8090474990931566e-14 -1.0724899879814636 0.0
VECTORS velocity double
0.0 0.0 0.0
0.0 0.0 0.0
0.0 14.035579695244412 0.0
0.0 14.035579695240802 0.0
-3.102362952675625e-13 0.0 0.0
0.0 0.7280154806044292 0.0
0.0 1.4769832364229951 0.0
0.0 2.229508028971081 0.0
0.0 3.0678221172077684 0.0
0.0 4.06841053349799 0.0
0.0 5.232636075958561 0.0
0.0 6.574754513550857 0.0
0.0 8.0753142849836 0.0
0.0 9.605361390356453 0.0
0.0 11.130816326704496 0.0
0.0 12.46824912971531 0.0
0.0 13.501669835395125 0.0
0.0 14.13458848053575 0.0
0.0 14.33125074902983 0.0
0.0 14.243728493765083 0.0
0.0 14.073700109101848 0.0
0.0 13.965831625060986 0.0
0.0 13.938630065294664 0.0
0.0 13.980304290417074 0.0
-8.255304706025854e-13 14.021364724904128 0.0
0.0 13.980304290416107 0.0
0.0 13.938630065294522 0.0
0.0 13.96583162506034 0.0
0.0 14.073700109100475 0.0
0.0 14.2437284937631 0.0
0.0 14.331250749029053 0.0
0.0 14.134588480538879 0.0
0.0 13.501669835404602 0.0
0.0 12.46824912973102 0.0
0.0 11.130816326725808 0.0
0.0 9.6053613903826 0.0
0.0 8.075314285011869 0.0
0.0 6.5747545135730405 0.0
0.0 5.232636075973103 0.0
0.0 4.0684105335078335 0.0
0.0 3.0678221172137743 0.0
0.0 2.229508028973614 0.0
0.0 1.4769832364243949 0.0
0.0 0.7280154806054038 0.0
-1.7909623393215826e-13 0.7157277424139175 0.0
2.4728043800833246e-13 1.470010304054862 0.0
1.2698895133807518e-13 2.208314395328591 0.0
1.0576439577525831e-13 3.0726164091329142 0.0
1.4435959223202858e-13 4.071728023058607 0.0
-1.5476024736114898e-13 5.255183437350143 0.0
-3.9106416213345285e-13 6.595610409802898 0.0
1.1258091171125959e-14 8.076137252680951 0.0
6.562867736646186e-14 9.60476786431937 0.0
1.649436616217169e-13 11.11876982031978 0.0
1.1864679432582893e-13 12.469404300645525 0.0
3.1072820134977837e-13 13.511995737368498 0.0
2.0023643904973787e-13 14.122741539426068 0.0
-2.4998179941771457e-13 14.304240409063361 0.0
1.671032431313399e-13 14.246050061483071 0.0
-1.4655916808880467e-13 14.065791226172635 0.0
-3.5631740175756105e-13 13.953514356246927 0.0
-3.351350141025258e-13 13.924392713424137 0.0
8.912926308049137e-13 13.975689772149341 0.0
VECTORS boundary_conditions double
1.0 1.0 0.0
1.0 1.0 0.0
1.0 0.0 0.0
1.0 0.0 0.0
0.0 1.0 0.0
1.0 0.0 0.0
1.0 0.0 0.0
1.0 0.0 0.0
1.0 0.0 0.0
1.0 0.0 0.0
1.0 0.0 0.0
1.0 0.0 0.0
1.0 0.0 0.0
1.0 0.0 0.0
1.0 0.0 0.0
1.0 0.0 0.0
1.0 0.0 0.0
1.0 0.0 0.0
1.0 0.0 0.0
1.0 0.0 0.0
1.0 0.0 0.0
1.0 0.0 0.0
1.0 0.0 0.0
1.0 0.0 0.0
0.0 0.0 0.0
1.0 0.0 0.0
1.0 0.0 0.0
1.0 0.0 0.0
1.0 0.0 0.0
1.0 0.0 0.0
1.0 0.0 0.0
1.0 0.0 0.0
1.0 0.0 0.0
1.0 0.0 0.0
1.0 0.0 0.0
1.0 0.0 0.0
1.0 0.0 0.0
1.0 0.0 0.0
1.0 0.0 0.0
1.0 0.0 0.0
1.0 0.0 0.0
1.0 0.0 0.0
1.0 0.0 0.0
1.0 0.0 0.0
0.0 0.0 0.0
0.0 0.0 0.0
0.0 0.0 0.0
0.0 0.0 0.0
0.0 0.0 0.0
0.0 0.0 0.0
0.0 0.0 0.0
0.0 0.0 0.0
0.0 0.0 0.0
0.0 0.0 0.0
0.0 0.0 0.0
0.0 0.0 0.0
0.0 0.0 0.0
0.0 0.0 0.0
0.0 0.0 0.0
0.0 0.0 0.0
0.0 0.0 0.0
0.0 0.0 0.0
0.0 0.0 0.0
CELL_DATA 40
SCALARS material_index double
LOOKUP_TABLE default
1.0
1.0
1.0
1.0
1.0
1.0
1.0
1.0
1.0
1.0
1.0
1.0
1.0
1.0
1.0
1.0
1.0
1.0
1.0
1.0
1.0
1.0
1.0
1.0
1.0
1.0
1.0
1.0
1.0
1.0
1.0
1.0
1.0
1.0
1.0
1.0
1.0
1.0
1.0
1.0
SCALARS material_prop_density double
LOOKUP_TABLE default
1500.0
1500.0
1500.0
1500.0
1500.0
1500.0
1500.0
1500.0
1500.0
1500.0
1500.0
1500.0
1500.0
1500.0
1500.0
1500.0
1500.0
1500.0
1500.0
1500.0
1500.0
1500.0
1500.0
1500.0
1500.0
1500.0
1500.0
1500.0
1500.0
1500.0
1500.0
1500.0
1500.0
1500.0
1500.0
1500.0
1500.0
1500.0
1500.0
1500.0
SCALARS material_prop_Young double
LOOKUP_TABLE default
30000000.0
30000000.0
30000000.0
30000000.0
30000000.0
30000000.0
30000000.0
30000000.0
30000000.0
30000000.0
30000000.0
30000000.0
30000000.0
30000000.0
30000000.0
30000000.0
30000000.0
30000000.0
30000000.0
30000000.0
30000000.0
30000000.0
30000000.0
30000000.0
30000000.0
30000000.0
30000000.0
30000000.0
30000000.0
30000000.0
30000000.0
30000000.0
30000000.0
30000000.0
30000000.0
30000000.0
30000000.0
30000000.0
30000000.0
30000000.0
SCALARS material_prop_poisson double
LOOKUP_TABLE default
0.2
0.2
0.2
0.2
0.2
0.2
0.2
0.2
0.2
0.2
0.2
0.2
0.2
0.2
0.2
0.2
0.2
0.2
0.2
0.2
0.2
0.2
0.2
0.2
0.2
0.2
0.2
0.2
0.2
0.2
0.2
0.2
0.2
0.2
0.2
0.2
0.2
0.2
0.2
0.2
