# vtk DataFile Version 2.0
data_46
ASCII
DATASET UNSTRUCTURED_GRID
POINTS 63 float
0.0 0.0 0.0
1.0 0.0 0.0
1.0 10.0 0.0
0.0 10.0 0.0
0.4999999999986921 0.0 0.0
1.0 0.499999999999551 0.0
1.0 0.9999999999991888 0.0
1.0 1.499999999998284 0.0
1.0 1.999999999996824 0.0
1.0 2.499999999995364 0.0
1.0 2.999999999993903 0.0
1.0 3.499999999992442 0.0
1.0 3.999999999991017 0.0
1.0 4.499999999991639 0.0
1.0 4.999999999992399 0.0
1.0 5.499999999993159 0.0
1.0 5.99999999999392 0.0
1.0 6.499999999994679 0.0
1.0 6.999999999995438 0.0
1.0 7.499999999996199 0.0
1.0 7.99999999999696 0.0
1.0 8.49999999999772 0.0
1.0 8.99999999999848 0.0
1.0 9.49999999999924 0.0
0.5000000000020595 10.0 0.0
0.0 9.5 0.0
0.0 8.999999999999998 0.0
0.0 8.499999999999998 0.0
0.0 7.999999999999996 0.0
0.0 7.499999999999995 0.0
0.0 6.999999999999995 0.0
0.0 6.499999999999996 0.0
0.0 5.999999999999996 0.0
0.0 5.499999999999996 0.0
0.0 4.999999999999996 0.0
0.0 4.499999999999997 0.0
0.0 3.999999999999996 0.0
0.0 3.499999999999997 0.0
0.0 2.999999999999998 0.0
0.0 2.499999999999998 0.0
0.0 1.999999999999998 0.0
0.0 1.5 0.0
0.0 0.9999999999999982 0.0
0.0 0.5 0.0
0.4999999999988605 0.4999999999997756 0.0
0.4999999999990288 0.9999999999995937 0.0
0.4999999999991972 1.499999999999142 0.0
0.4999999999993656 1.999999999998411 0.0
0.499999999999534 2.499999999997681 0.0
0.4999999999997023 2.999999999996951 0.0
0.4999999999998707 3.49999999999622 0.0
0.5000000000000391 3.999999999995507 0.0
0.5000000000002074 4.499999999995817 0.0
0.5000000000003758 4.999999999996198 0.0
0.5000000000005441 5.499999999996577 0.0
0.5000000000007125 5.999999999996958 0.0
0.500000000000881 6.499999999997339 0.0
0.5000000000010493 6.999999999997716 0.0
0.5000000000012177 7.499999999998098 0.0
0.500000000001386 7.999999999998479 0.0
0.5000000000015543 8.499999999998856 0.0
0.5000000000017226 8.99999999999924 0.0
0.5000000000018909 9.49999999999962 0.0
CELLS 40 200
4 0 4 44 43
4 43 44 45 42
4 42 45 46 41
4 41 46 47 40
4 40 47 48 39
4 39 48 49 38
4 38 49 50 37
4 37 50 51 36
4 36 51 52 35
4 35 52 53 34
4 34 53 54 33
4 33 54 55 32
4 32 55 56 31
4 31 56 57 30
4 30 57 58 29
4 29 58 59 28
4 28 59 60 27
4 27 60 61 26
4 26 61 62 25
4 25 62 24 3
4 4 1 5 44
4 44 5 6 45
4 45 6 7 46
4 46 7 8 47
4 47 8 9 48
4 48 9 10 49
4 49 10 11 50
4 50 11 12 51
4 51 12 13 52
4 52 13 14 53
4 53 14 15 54
4 54 15 16 55
4 55 16 17 56
4 56 17 18 57
4 57 18 19 58
4 58 19 20 59
4 59 20 21 60
4 60 21 22 61
4 61 22 23 62
4 62 23 2 24
CELL_TYPES 40
9
9
9
9
9
9
9
9
9
9
9
9
9
9
9
9
9
9
9
9
9
9
9
9
9
9
9
9
9
9
9
9
9
9
9
9
9
9
9
9
POINT_DATA 63
VECTORS displacement double
0.0 0.0 0.0
0.0 0.0 0.0
0.0 -0.6692188499536131 0.0
0.0 -0.6692188499531566 0.0
-6.3258519419710704e-15 0.0 0.0
0.0 0.00694283297928058 0.0
0.0 0.00954020993241402 0.0
0.0 0.005908486525385762 0.0
0.0 -0.006569229024173555 0.0
0.0 -0.028530313220266175 0.0
0.0 -0.05761295412646053 0.0
0.0 -0.09234431926254515 0.0
0.0 -0.13048061867850594 0.0
0.0 -0.17000953358650767 0.0
0.0 -0.20990449615901874 0.0
0.0 -0.2503074399578408 0.0
0.0 -0.29306378913598863 0.0
0.0 -0.3370860554050449 0.0
0.0 -0.38194951388245546 0.0
0.0 -0.42715510588523736 0.0
0.0 -0.4721239186985592 0.0
0.0 -0.5169937434063748 0.0
0.0 -0.5615468985579506 0.0
0.0 -0.6072340440216585 0.0
3.694377183915585e-14 -0.6330601923491256 0.0
0.0 -0.6072340440216285 0.0
0.0 -0.5615468985580764 0.0
0.0 -0.5169937434065767 0.0
0.0 -0.472123918698834 0.0
0.0 -0.4271551058855799 0.0
0.0 -0.38194951388286885 0.0
0.0 -0.3370860554055196 0.0
0.0 -0.2930637891365224 0.0
0.0 -0.25030743995840987 0.0
0.0 -0.2099044961596262 0.0
0.0 -0.1700095335871781 0.0
0.0 -0.13048061867920374 0.0
0.0 -0.09234431926309945 0.0
0.0 -0.05761295412684825 0.0
0.0 -0.028530313220502552 0.0
0.0 -0.006569229024278668 0.0
0.0 0.005908486525363538 0.0
0.0 0.0095402099324112 0.0
0.0 0.006942832979290196 0.0
3.2123868130814713e-15 0.006942669514906725 0.0
3.0828067724858726e-15 0.00954057924258609 0.0
-4.8115273316692044e-15 0.0059093169600062095 0.0
1.692159352111794e-15 -0.0065740292535857526 0.0
1.5646049907758824e-16 -0.028529501056660737 0.0
-4.560895372601541e-16 -0.05758266793998611 0.0
-1.7229458226806029e-15 -0.09237955260287542 0.0
1.872287030121076e-15 -0.13058497958863802 0.0
1.6422938659978278e-15 -0.1698259831380715 0.0
-1.356785692873187e-15 -0.20971099338292679 0.0
6.602335291555253e-16 -0.2506755818691275 0.0
-7.681036008513467e-16 -0.29326360882561525 0.0
1.1335323952360199e-17 -0.3370035324421151 0.0
-3.300861214304976e-16 -0.38182963210208365 0.0
1.3974009823644033e-15 -0.42679976805801945 0.0
9.682136801279715e-17 -0.4719844194263321 0.0
-8.905140032344053e-16 -0.5167509052438611 0.0
-6.659686739951627e-15 -0.5614307697433376 0.0
-3.820051536357618e-14 -0.6053036903115774 0.0
VECTORS velocity double
0.0 0.0 0.0
0.0 0.0 0.0
0.0 13.292671937885313 0.0
0.0 13.292671937886954 0.0
-2.237968651326753e-12 0.0 0.0
0.0 1.9439369488493892 0.0
0.0 3.554279307056767 0.0
0.0 4.933639487165918 0.0
0.0 6.013408683442805 0.0
0.0 7.031626723104413 0.0
0.0 7.973222309092243 0.0
0.0 9.229051668712094 0.0
0.0 10.74717589417421 0.0
0.0 11.689051841769318 0.0
0.0 12.763304252807053 0.0
0.0 13.19783530085248 0.0
0.0 12.975674887746171 0.0
0.0 12.935008457295963 0.0
0.0 12.737852366402407 0.0
0.0 13.189567533380623 0.0
0.0 13.354410156440125 0.0
0.0 13.543329471473031 0.0
0.0 13.403567350665762 0.0
0.0 13.37762091929077 0.0
1.9726565127550214e-14 13.072069231985882 0.0
0.0 13.377620919290525 0.0
0.0 13.40356735066645 0.0
0.0 13.543329471472303 0.0
0.0 13.354410156443738 0.0
0.0 13.18956753338472 0.0
0.0 12.737852366406127 0.0
0.0 12.935008457293796 0.0
0.0 12.975674887746814 0.0
0.0 13.197835300851287 0.0
0.0 12.76330425282125 0.0
0.0 11.689051841781598 0.0
0.0 10.747175894197492 0.0
0.0 9.229051668734881 0.0
0.0 7.9732223091008905 0.0
0.0 7.031626723116922 0.0
0.0 6.013408683449763 0.0
0.0 4.933639487167776 0.0
0.0 3.554279307059743 0.0
0.0 1.943936948853521 0.0
1.1617869177339254e-12 1.9439179056112401 0.0
3.7575073778115953e-13 3.5547358232744086 0.0
-2.942935530083969e-13 4.932695436622216 0.0
-9.683113516902756e-13 6.011172598771832 0.0
6.439621377465847e-13 7.042723998864709 0.0
1.7230056141704612e-12 7.971724102334322 0.0
-2.507358115766099e-12 9.171143061470335 0.0
1.6509323773667789e-12 10.810173657996636 0.0
-2.124854288623962e-13 11.838203403719584 0.0
1.9399199189509807e-13 12.518111633901364 0.0
-1.5494585776782831e-12 13.031535692334504 0.0
1.960920135226746e-13 13.25077239798009 0.0
9.366250025174099e-13 13.005403632450017 0.0
-5.538594690979318e-13 12.913392346492257 0.0
4.884094355654131e-13 13.162624579454267 0.0
-7.305633127842839e-13 13.258605427569373 0.0
3.886011760932198e-13 13.445318924752312 0.0
-5.36043828407684e-13 13.200446960110282 0.0
3.955607520409339e-13 13.277373413439662 0.0
VECTORS boundary_conditions double
1.0 1.0 0.0
1.0 1.0 0.0
1.0 0.0 0.0
1.0 0.0 0.0
0.0 1.0 0.0
1.0 0.0 0.0
1.0 0.0 0.0
1.0 0.0 0.0
1.0 0.0 0.0
1.0 0.0 0.0
1.0 0.0 0.0
1.0 0.0 0.0
1.0 0.0 0.0
1.0 0.0 0.0
1.0 0.0 0.0
1.0 0.0 0.0
1.0 0.0 0.0
1.0 0.0 0.0
1.0 0.0 0.0
1.0 0.0 0.0
1.0 0.0 0.0
1.0 0.0 0.0
1.0 0.0 0.0
1.0 0.0 0.0
0.0 0.0 0.0
1.0 0.0 0.0
1.0 0.0 0.0
1.0 0.0 0.0
1.0 0.0 0.0
1.0 0.0 0.0
1.0 0.0 0.0
1.0 0.0 0.0
1.0 0.0 0.0
1.0 0.0 0.0
1.0 0.0 0.0
1.0 0.0 0.0
1.0 0.0 0.0
1.0 0.0 0.0
1.0 0.0 0.0
1.0 0.0 0.0
1.0 0.0 0.0
1.0 0.0 0.0
1.0 0.0 0.0
1.0 0.0 0.0
0.0 0.0 0.0
0.0 0.0 0.0
0.0 0.0 0.0
0.0 0.0 0.0
0.0 0.0 0.0
0.0 0.0 0.0
0.0 0.0 0.0
0.0 0.0 0.0
0.0 0.0 0.0
0.0 0.0 0.0
0.0 0.0 0.0
0.0 0.0 0.0
0.0 0.0 0.0
0.0 0.0 0.0
0.0 0.0 0.0
0.0 0.0 0.0
0.0 0.0 0.0
0.0 0.0 0.0
0.0 0.0 0.0
CELL_DATA 40
SCALARS material_index double
LOOKUP_TABLE default
1.0
1.0
1.0
1.0
1.0
1.0
1.0
1.0
1.0
1.0
1.0
1.0
1.0
1.0
1.0
1.0
1.0
1.0
1.0
1.0
1.0
1.0
1.0
1.0
1.0
1.0
1.0
1.0
1.0
1.0
1.0
1.0
1.0
1.0
1.0
1.0
1.0
1.0
1.0
1.0
SCALARS material_prop_density double
LOOKUP_TABLE default
1500.0
1500.0
1500.0
1500.0
1500.0
1500.0
1500.0
1500.0
1500.0
1500.0
1500.0
1500.0
1500.0
1500.0
1500.0
1500.0
1500.0
1500.0
1500.0
1500.0
1500.0
1500.0
1500.0
1500.0
1500.0
1500.0
1500.0
1500.0
1500.0
1500.0
1500.0
1500.0
1500.0
1500.0
1500.0
1500.0
1500.0
1500.0
1500.0
1500.0
SCALARS material_prop_Young double
LOOKUP_TABLE default
30000000.0
30000000.0
30000000.0
30000000.0
30000000.0
30000000.0
30000000.0
30000000.0
30000000.0
30000000.0
30000000.0
30000000.0
30000000.0
30000000.0
30000000.0
30000000.0
30000000.0
30000000.0
30000000.0
30000000.0
30000000.0
30000000.0
30000000.0
30000000.0
30000000.0
30000000.0
30000000.0
30000000.0
30000000.0
30000000.0
30000000.0
30000000.0
30000000.0
30000000.0
30000000.0
30000000.0
30000000.0
30000000.0
30000000.0
30000000.0
SCALARS material_prop_poisson double
LOOKUP_TABLE default
0.2
0.2
0.2
0.2
0.2
0.2
0.2
0.2
0.2
0.2
0.2
0.2
0.2
0.2
0.2
0.2
0.2
0.2
0.2
0.2
0.2
0.2
0.2
0.2
0.2
0.2
0.2
0.2
0.2
0.2
0.2
0.2
0.2
0.2
0.2
0.2
0.2
0.2
0.2
0.2
