# vtk DataFile Version 2.0
data_26
ASCII
DATASET UNSTRUCTURED_GRID
POINTS 63 float
0.0 0.0 0.0
1.0 0.0 0.0
1.0 10.0 0.0
0.0 10.0 0.0
0.4999999999986921 0.0 0.0
1.0 0.499999999999551 0.0
1.0 0.9999999999991888 0.0
1.0 1.499999999998284 0.0
1.0 1.999999999996824 0.0
1.0 2.499999999995364 0.0
1.0 2.999999999993903 0.0
1.0 3.499999999992442 0.0
1.0 3.999999999991017 0.0
1.0 4.499999999991639 0.0
1.0 4.999999999992399 0.0
1.0 5.499999999993159 0.0
1.0 5.99999999999392 0.0
1.0 6.499999999994679 0.0
1.0 6.999999999995438 0.0
1.0 7.499999999996199 0.0
1.0 7.99999999999696 0.0
1.0 8.49999999999772 0.0
1.0 8.99999999999848 0.0
1.0 9.49999999999924 0.0
0.5000000000020595 10.0 0.0
0.0 9.5 0.0
0.0 8.999999999999998 0.0
0.0 8.499999999999998 0.0
0.0 7.999999999999996 0.0
0.0 7.499999999999995 0.0
0.0 6.999999999999995 0.0
0.0 6.499999999999996 0.0
0.0 5.999999999999996 0.0
0.0 5.499999999999996 0.0
0.0 4.999999999999996 0.0
0.0 4.499999999999997 0.0
0.0 3.999999999999996 0.0
0.0 3.499999999999997 0.0
0.0 2.999999999999998 0.0
0.0 2.499999999999998 0.0
0.0 1.999999999999998 0.0
0.0 1.5 0.0
0.0 0.9999999999999982 0.0
0.0 0.5 0.0
0.4999999999988605 0.4999999999997756 0.0
0.4999999999990288 0.9999999999995937 0.0
0.4999999999991972 1.499999999999142 0.0
0.4999999999993656 1.999999999998411 0.0
0.499999999999534 2.499999999997681 0.0
0.4999999999997023 2.999999999996951 0.0
0.4999999999998707 3.49999999999622 0.0
0.5000000000000391 3.999999999995507 0.0
0.5000000000002074 4.499999999995817 0.0
0.5000000000003758 4.999999999996198 0.0
0.5000000000005441 5.499999999996577 0.0
0.5000000000007125 5.999999999996958 0.0
0.500000000000881 6.499999999997339 0.0
0.5000000000010493 6.999999999997716 0.0
0.5000000000012177 7.499999999998098 0.0
0.500000000001386 7.999999999998479 0.0
0.5000000000015543 8.499999999998856 0.0
0.5000000000017226 8.99999999999924 0.0
0.5000000000018909 9.49999999999962 0.0
CELLS 40 200
4 0 4 44 43
4 43 44 45 42
4 42 45 46 41
4 41 46 47 40
4 40 47 48 39
4 39 48 49 38
4 38 49 50 37
4 37 50 51 36
4 36 51 52 35
4 35 52 53 34
4 34 53 54 33
4 33 54 55 32
4 32 55 56 31
4 31 56 57 30
4 30 57 58 29
4 29 58 59 28
4 28 59 60 27
4 27 60 61 26
4 26 61 62 25
4 25 62 24 3
4 4 1 5 44
4 44 5 6 45
4 45 6 7 46
4 46 7 8 47
4 47 8 9 48
4 48 9 10 49
4 49 10 11 50
4 50 11 12 51
4 51 12 13 52
4 52 13 14 53
4 53 14 15 54
4 54 15 16 55
4 55 16 17 56
4 56 17 18 57
4 57 18 19 58
4 58 19 20 59
4 59 20 21 60
4 60 21 22 61
4 61 22 23 62
4 62 23 2 24
CELL_TYPES 40
9
9
9
9
9
9
9
9
9
9
9
9
9
9
9
9
9
9
9
9
9
9
9
9
9
9
9
9
9
9
9
9
9
9
9
9
9
9
9
9
POINT_DATA 63
VECTORS displacement double
0.0 0.0 0.0
0.0 0.0 0.0
0.0 -1.6153430438504481 0.0
0.0 -1.6153430438499912 0.0
-3.669434299776587e-16 0.0 0.0
0.0 -0.08972755486192761 0.0
0.0 -0.17951003320399334 0.0
0.0 -0.2698478512438981 0.0
0.0 -0.36032696754565013 0.0
0.0 -0.4494111352566382 0.0
0.0 -0.5372427019689593 0.0
0.0 -0.6260285282913745 0.0
0.0 -0.7165486174522842 0.0
0.0 -0.8088036734530617 0.0
0.0 -0.9035149359637469 0.0
0.0 -0.9980685891507309 0.0
0.0 -1.0889634728505215 0.0
0.0 -1.1751845299048986 0.0
0.0 -1.2540470662632748 0.0
0.0 -1.324920359858988 0.0
0.0 -1.3890546551774674 0.0
0.0 -1.4474633410870663 0.0
0.0 -1.5011085189075892 0.0
0.0 -1.5515808485452296 0.0
3.344002638984461e-14 -1.579105556391327 0.0
0.0 -1.5515808485452114 0.0
0.0 -1.5011085189077336 0.0
0.0 -1.4474633410873254 0.0
0.0 -1.3890546551778464 0.0
0.0 -1.3249203598595065 0.0
0.0 -1.254047066263953 0.0
0.0 -1.1751845299057828 0.0
0.0 -1.088963472851596 0.0
0.0 -0.9980685891519984 0.0
0.0 -0.9035149359651999 0.0
0.0 -0.8088036734546196 0.0
0.0 -0.7165486174539174 0.0
0.0 -0.6260285282927365 0.0
0.0 -0.5372427019700338 0.0
0.0 -0.4494111352574498 0.0
0.0 -0.36032696754622123 0.0
0.0 -0.2698478512442125 0.0
0.0 -0.17951003320413905 0.0
0.0 -0.08972755486200668 0.0
-2.2622280263683265e-16 -0.08972755485732897 0.0
8.128079715383608e-16 -0.17951003320953976 0.0
4.1698215384312846e-16 -0.26984785142190204 0.0
-2.073724484339292e-15 -0.3603269659001479 0.0
6.666308944298938e-16 -0.44941113996791393 0.0
3.504489222994804e-15 -0.5372427249521771 0.0
-3.005632371542895e-15 -0.6260283050933678 0.0
-2.6164011061948366e-15 -0.7165489712408646 0.0
2.9117744633530004e-15 -0.8088064346259377 0.0
-9.650889563032783e-16 -0.9035035041901754 0.0
-1.5971617336195595e-15 -0.9980588428202892 0.0
2.541761281697854e-15 -1.0890746080090032 0.0
5.494298198085179e-16 -1.1751430016746207 0.0
8.912079284417926e-16 -1.2535620618341794 0.0
-7.700141639983124e-16 -1.3251840126679777 0.0
-3.7331336256888706e-16 -1.389857689952037 0.0
8.24560652327978e-16 -1.4475240602816208 0.0
-5.601764080323296e-15 -1.501215912693439 0.0
-3.849212235108439e-14 -1.549433287871783 0.0
VECTORS velocity double
0.0 0.0 0.0
0.0 0.0 0.0
0.0 -11.804178666148918 0.0
0.0 -11.804178666146758 0.0
-3.8788291695452115e-13 0.0 0.0
0.0 0.23444883795497384 0.0
0.0 0.2388592070674651 0.0
0.0 -0.011939602133347549 0.0
0.0 -0.17810948076540445 0.0
0.0 -0.18675840132367316 0.0
0.0 -0.4270119131756509 0.0
0.0 -0.427610546373387 0.0
0.0 0.5356778707728225 0.0
0.0 1.3475703871124445 0.0
0.0 1.3560719602994329 0.0
0.0 1.206672648109759 0.0
0.0 -0.17171825080965242 0.0
0.0 -2.3617012237170822 0.0
0.0 -4.163634891746895 0.0
0.0 -6.3596225590204565 0.0
0.0 -8.439414705523362 0.0
0.0 -10.139454771115107 0.0
0.0 -11.028466334776423 0.0
0.0 -11.79565070592486 0.0
-3.457136860900822e-14 -11.615363385800329 0.0
0.0 -11.795650705924665 0.0
0.0 -11.028466334777377 0.0
0.0 -10.13945477111921 0.0
0.0 -8.439414705533178 0.0
0.0 -6.359622559042675 0.0
0.0 -4.163634891767536 0.0
0.0 -2.3617012237369206 0.0
0.0 -0.1717182508393389 0.0
0.0 1.2066726481047763 0.0
0.0 1.3560719602985536 0.0
0.0 1.3475703871134748 0.0
0.0 0.5356778707972474 0.0
0.0 -0.42761054636395457 0.0
0.0 -0.42701191318285225 0.0
0.0 -0.18675840132444854 0.0
0.0 -0.17810948076362543 0.0
0.0 -0.011939602134982685 0.0
0.0 0.2388592070663993 0.0
0.0 0.2344488379557661 0.0
9.658132374195783e-14 0.234448843478283 0.0
5.465721013648219e-13 0.23885918142898133 0.0
-5.5316092803778e-13 -0.011939609948584895 0.0
-5.276685929297819e-13 -0.17810835604394892 0.0
1.294953031951239e-12 -0.1867663666549806 0.0
-5.796206884603095e-13 -0.4269963177231588 0.0
-1.4863820870491156e-12 -0.42749176044803683 0.0
2.4046479253898782e-12 0.5348502350613416 0.0
-1.21861473552868e-13 1.3484089745785592 0.0
-2.0220888314042472e-12 1.365193060393091 0.0
1.7360822297734956e-12 1.1773281938851916 0.0
1.540126701719782e-14 -0.19992075036128654 0.0
-4.537524978038532e-13 -2.138260394610155 0.0
3.7445909171003426e-13 -4.231695865516118 0.0
-1.1105249709934786e-12 -6.98372093348377 0.0
1.4723663586218282e-12 -8.164987856172354 0.0
-1.581613162158958e-13 -9.833871184393187 0.0
-3.095172132887389e-13 -10.738876983140978 0.0
-9.60136638940659e-13 -11.377090396250502 0.0
VECTORS boundary_conditions double
1.0 1.0 0.0
1.0 1.0 0.0
1.0 0.0 0.0
1.0 0.0 0.0
0.0 1.0 0.0
1.0 0.0 0.0
1.0 0.0 0.0
1.0 0.0 0.0
1.0 0.0 0.0
1.0 0.0 0.0
1.0 0.0 0.0
1.0 0.0 0.0
1.0 0.0 0.0
1.0 0.0 0.0
1.0 0.0 0.0
1.0 0.0 0.0
1.0 0.0 0.0
1.0 0.0 0.0
1.0 0.0 0.0
1.0 0.0 0.0
1.0 0.0 0.0
1.0 0.0 0.0
1.0 0.0 0.0
1.0 0.0 0.0
0.0 0.0 0.0
1.0 0.0 0.0
1.0 0.0 0.0
1.0 0.0 0.0
1.0 0.0 0.0
1.0 0.0 0.0
1.0 0.0 0.0
1.0 0.0 0.0
1.0 0.0 0.0
1.0 0.0 0.0
1.0 0.0 0.0
1.0 0.0 0.0
1.0 0.0 0.0
1.0 0.0 0.0
1.0 0.0 0.0
1.0 0.0 0.0
1.0 0.0 0.0
1.0 0.0 0.0
1.0 0.0 0.0
1.0 0.0 0.0
0.0 0.0 0.0
0.0 0.0 0.0
0.0 0.0 0.0
0.0 0.0 0.0
0.0 0.0 0.0
0.0 0.0 0.0
0.0 0.0 0.0
0.0 0.0 0.0
0.0 0.0 0.0
0.0 0.0 0.0
0.0 0.0 0.0
0.0 0.0 0.0
0.0 0.0 0.0
0.0 0.0 0.0
0.0 0.0 0.0
0.0 0.0 0.0
0.0 0.0 0.0
0.0 0.0 0.0
0.0 0.0 0.0
CELL_DATA 40
SCALARS material_index double
LOOKUP_TABLE default
1.0
1.0
1.0
1.0
1.0
1.0
1.0
1.0
1.0
1.0
1.0
1.0
1.0
1.0
1.0
1.0
1.0
1.0
1.0
1.0
1.0
1.0
1.0
1.0
1.0
1.0
1.0
1.0
1.0
1.0
1.0
1.0
1.0
1.0
1.0
1.0
1.0
1.0
1.0
1.0
SCALARS material_prop_density double
LOOKUP_TABLE default
1500.0
1500.0
1500.0
1500.0
1500.0
1500.0
1500.0
1500.0
1500.0
1500.0
1500.0
1500.0
1500.0
1500.0
1500.0
1500.0
1500.0
1500.0
1500.0
1500.0
1500.0
1500.0
1500.0
1500.0
1500.0
1500.0
1500.0
1500.0
1500.0
1500.0
1500.0
1500.0
1500.0
1500.0
1500.0
1500.0
1500.0
1500.0
1500.0
1500.0
SCALARS material_prop_Young double
LOOKUP_TABLE default
30000000.0
30000000.0
30000000.0
30000000.0
30000000.0
30000000.0
30000000.0
30000000.0
30000000.0
30000000.0
30000000.0
30000000.0
30000000.0
30000000.0
30000000.0
30000000.0
30000000.0
30000000.0
30000000.0
30000000.0
30000000.0
30000000.0
30000000.0
30000000.0
30000000.0
30000000.0
30000000.0
30000000.0
30000000.0
30000000.0
30000000.0
30000000.0
30000000.0
30000000.0
30000000.0
30000000.0
30000000.0
30000000.0
30000000.0
30000000.0
SCALARS material_prop_poisson double
LOOKUP_TABLE default
0.2
0.2
0.2
0.2
0.2
0.2
0.2
0.2
0.2
0.2
0.2
0.2
0.2
0.2
0.2
0.2
0.2
0.2
0.2
0.2
0.2
0.2
0.2
0.2
0.2
0.2
0.2
0.2
0.2
0.2
0.2
0.2
0.2
0.2
0.2
0.2
0.2
0.2
0.2
0.2
