# vtk DataFile Version 2.0
data_96
ASCII
DATASET UNSTRUCTURED_GRID
POINTS 63 float
0.0 0.0 0.0
1.0 0.0 0.0
1.0 10.0 0.0
0.0 10.0 0.0
0.4999999999986921 0.0 0.0
1.0 0.499999999999551 0.0
1.0 0.9999999999991888 0.0
1.0 1.499999999998284 0.0
1.0 1.999999999996824 0.0
1.0 2.499999999995364 0.0
1.0 2.999999999993903 0.0
1.0 3.499999999992442 0.0
1.0 3.999999999991017 0.0
1.0 4.499999999991639 0.0
1.0 4.999999999992399 0.0
1.0 5.499999999993159 0.0
1.0 5.99999999999392 0.0
1.0 6.499999999994679 0.0
1.0 6.999999999995438 0.0
1.0 7.499999999996199 0.0
1.0 7.99999999999696 0.0
1.0 8.49999999999772 0.0
1.0 8.99999999999848 0.0
1.0 9.49999999999924 0.0
0.5000000000020595 10.0 0.0
0.0 9.5 0.0
0.0 8.999999999999998 0.0
0.0 8.499999999999998 0.0
0.0 7.999999999999996 0.0
0.0 7.499999999999995 0.0
0.0 6.999999999999995 0.0
0.0 6.499999999999996 0.0
0.0 5.999999999999996 0.0
0.0 5.499999999999996 0.0
0.0 4.999999999999996 0.0
0.0 4.499999999999997 0.0
0.0 3.999999999999996 0.0
0.0 3.499999999999997 0.0
0.0 2.999999999999998 0.0
0.0 2.499999999999998 0.0
0.0 1.999999999999998 0.0
0.0 1.5 0.0
0.0 0.9999999999999982 0.0
0.0 0.5 0.0
0.4999999999988605 0.4999999999997756 0.0
0.4999999999990288 0.9999999999995937 0.0
0.4999999999991972 1.499999999999142 0.0
0.4999999999993656 1.999999999998411 0.0
0.499999999999534 2.499999999997681 0.0
0.4999999999997023 2.999999999996951 0.0
0.4999999999998707 3.49999999999622 0.0
0.5000000000000391 3.999999999995507 0.0
0.5000000000002074 4.499999999995817 0.0
0.5000000000003758 4.999999999996198 0.0
0.5000000000005441 5.499999999996577 0.0
0.5000000000007125 5.999999999996958 0.0
0.500000000000881 6.499999999997339 0.0
0.5000000000010493 6.999999999997716 0.0
0.5000000000012177 7.499999999998098 0.0
0.500000000001386 7.999999999998479 0.0
0.5000000000015543 8.499999999998856 0.0
0.5000000000017226 8.99999999999924 0.0
0.5000000000018909 9.49999999999962 0.0
CELLS 40 200
4 0 4 44 43
4 43 44 45 42
4 42 45 46 41
4 41 46 47 40
4 40 47 48 39
4 39 48 49 38
4 38 49 50 37
4 37 50 51 36
4 36 51 52 35
4 35 52 53 34
4 34 53 54 33
4 33 54 55 32
4 32 55 56 31
4 31 56 57 30
4 30 57 58 29
4 29 58 59 28
4 28 59 60 27
4 27 60 61 26
4 26 61 62 25
4 25 62 24 3
4 4 1 5 44
4 44 5 6 45
4 45 6 7 46
4 46 7 8 47
4 47 8 9 48
4 48 9 10 49
4 49 10 11 50
4 50 11 12 51
4 51 12 13 52
4 52 13 14 53
4 53 14 15 54
4 54 15 16 55
4 55 16 17 56
4 56 17 18 57
4 57 18 19 58
4 58 19 20 59
4 59 20 21 60
4 60 21 22 61
4 61 22 23 62
4 62 23 2 24
CELL_TYPES 40
9
9
9
9
9
9
9
9
9
9
9
9
9
9
9
9
9
9
9
9
9
9
9
9
9
9
9
9
9
9
9
9
9
9
9
9
9
9
9
9
POINT_DATA 63
VECTORS displacement double
0.0 0.0 0.0
0.0 0.0 0.0
0.0 -0.919946524170677 0.0
0.0 -0.9199465241702073 0.0
-2.860510338370334e-16 0.0 0.0
0.0 -0.054486903675203445 0.0
0.0 -0.10821882134178948 0.0
0.0 -0.16050380115557944 0.0
0.0 -0.2101738750362395 0.0
0.0 -0.2560430743802948 0.0
0.0 -0.2980433369733773 0.0
0.0 -0.337107204899763 0.0
0.0 -0.37451242975681165 0.0
0.0 -0.4116036069890381 0.0
0.0 -0.4496123124619025 0.0
0.0 -0.4891001168138141 0.0
0.0 -0.5303971591600719 0.0
0.0 -0.5734666987501388 0.0
0.0 -0.6182441727672247 0.0
0.0 -0.6645427546772469 0.0
0.0 -0.7121509540055176 0.0
0.0 -0.7605371754809236 0.0
0.0 -0.8087475007294143 0.0
0.0 -0.8568815570197571 0.0
3.768370153054314e-14 -0.8837710513468138 0.0
0.0 -0.8568815570197216 0.0
0.0 -0.8087475007295378 0.0
0.0 -0.7605371754811363 0.0
0.0 -0.7121509540058044 0.0
0.0 -0.6645427546776012 0.0
0.0 -0.6182441727676424 0.0
0.0 -0.5734666987506096 0.0
0.0 -0.5303971591605857 0.0
0.0 -0.48910011681436666 0.0
0.0 -0.4496123124624897 0.0
0.0 -0.41160360698966525 0.0
0.0 -0.37451242975747673 0.0
0.0 -0.3371072049003412 0.0
0.0 -0.29804333697387075 0.0
0.0 -0.25604307438069823 0.0
0.0 -0.2101738750365426 0.0
0.0 -0.16050380115575547 0.0
0.0 -0.10821882134187338 0.0
0.0 -0.054486903675249436 0.0
-2.7982831691315204e-16 -0.05455421287967379 0.0
1.1802051760647238e-16 -0.10826240152080006 0.0
-7.763740895460039e-16 -0.1604239865617292 0.0
-3.5045975073288706e-16 -0.21008413044249077 0.0
8.722465680440653e-16 -0.2560876639954635 0.0
1.8356898889302585e-15 -0.29808393393112187 0.0
-6.680426482987276e-16 -0.3371613299138428 0.0
-6.214286011655423e-16 -0.374559177975652 0.0
7.801679496268843e-16 -0.4116019316163997 0.0
-1.057340307837785e-15 -0.44960045222070943 0.0
1.686913140971301e-16 -0.4890357175429464 0.0
-4.601232764172912e-16 -0.5303544384583329 0.0
6.867872747606473e-16 -0.5733955671697497 0.0
-4.973583375175483e-16 -0.6182086815361291 0.0
1.8963115181649576e-16 -0.6644957283790989 0.0
1.3440878719251967e-16 -0.712135726403043 0.0
-1.799247459974416e-15 -0.7605111642566875 0.0
-7.68876813007604e-15 -0.8086571323772783 0.0
-3.9091842381997516e-14 -0.8550605706225046 0.0
VECTORS velocity double
0.0 0.0 0.0
0.0 0.0 0.0
0.0 14.319123949421005 0.0
0.0 14.31912394942145 0.0
-5.408522924625008e-13 0.0 0.0
0.0 2.3857167888567847 0.0
0.0 4.8535960599992265 0.0
0.0 7.039628860606472 0.0
0.0 9.161817783965239 0.0
0.0 10.95854828955176 0.0
0.0 12.504111432273536 0.0
0.0 13.773243267864219 0.0
0.0 14.714974692263706 0.0
0.0 15.24674533833721 0.0
0.0 15.222145911479327 0.0
0.0 14.852331391629573 0.0
0.0 14.014309163606622 0.0
0.0 12.953387919027287 0.0
0.0 12.169612454359612 0.0
0.0 11.813803564851714 0.0
0.0 11.978961806342397 0.0
0.0 12.648348948322244 0.0
0.0 13.396418432347582 0.0
0.0 14.036462054662532 0.0
6.358943794625176e-13 14.266583015438847 0.0
0.0 14.036462054662444 0.0
0.0 13.396418432349678 0.0
0.0 12.648348948324797 0.0
0.0 11.978961806345778 0.0
0.0 11.813803564850891 0.0
0.0 12.169612454355105 0.0
0.0 12.953387919016041 0.0
0.0 14.01430916359347 0.0
0.0 14.8523313916224 0.0
0.0 15.222145911475787 0.0
0.0 15.246745338340784 0.0
0.0 14.714974692278794 0.0
0.0 13.773243267880494 0.0
0.0 12.504111432290257 0.0
0.0 10.958548289566867 0.0
0.0 9.161817783979489 0.0
0.0 7.039628860613872 0.0
0.0 4.85359606000233 0.0
0.0 2.38571678885965 0.0
-3.0829687423250394e-13 2.5133266057513532 0.0
1.1693230735800401e-12 4.831439386672251 0.0
-9.486861967770712e-13 7.0282450957769065 0.0
-3.3377609051024634e-15 9.155148396968205 0.0
9.297941185584535e-13 10.91775645497388 0.0
-4.611461376564783e-13 12.485524914363157 0.0
-7.988123590218944e-14 13.759035714338118 0.0
-2.390761195357897e-13 14.766882461221808 0.0
5.524078379476979e-13 15.26887734275561 0.0
-6.371339788066566e-13 15.266247202814348 0.0
2.108190284774883e-13 14.868798824057246 0.0
-2.970679881952255e-13 14.01774043868502 0.0
3.728500854125169e-13 12.94766038146988 0.0
7.540118559930355e-13 12.138309251701019 0.0
-5.677497631015472e-13 11.794944021580305 0.0
-2.701505296931638e-13 11.931376456303909 0.0
-9.60704880422999e-13 12.626184193645598 0.0
-4.805560246440967e-13 13.344390477766261 0.0
6.013362488863558e-13 14.014694787176314 0.0
VECTORS boundary_conditions double
1.0 1.0 0.0
1.0 1.0 0.0
1.0 0.0 0.0
1.0 0.0 0.0
0.0 1.0 0.0
1.0 0.0 0.0
1.0 0.0 0.0
1.0 0.0 0.0
1.0 0.0 0.0
1.0 0.0 0.0
1.0 0.0 0.0
1.0 0.0 0.0
1.0 0.0 0.0
1.0 0.0 0.0
1.0 0.0 0.0
1.0 0.0 0.0
1.0 0.0 0.0
1.0 0.0 0.0
1.0 0.0 0.0
1.0 0.0 0.0
1.0 0.0 0.0
1.0 0.0 0.0
1.0 0.0 0.0
1.0 0.0 0.0
0.0 0.0 0.0
1.0 0.0 0.0
1.0 0.0 0.0
1.0 0.0 0.0
1.0 0.0 0.0
1.0 0.0 0.0
1.0 0.0 0.0
1.0 0.0 0.0
1.0 0.0 0.0
1.0 0.0 0.0
1.0 0.0 0.0
1.0 0.0 0.0
1.0 0.0 0.0
1.0 0.0 0.0
1.0 0.0 0.0
1.0 0.0 0.0
1.0 0.0 0.0
1.0 0.0 0.0
1.0 0.0 0.0
1.0 0.0 0.0
0.0 0.0 0.0
0.0 0.0 0.0
0.0 0.0 0.0
0.0 0.0 0.0
0.0 0.0 0.0
0.0 0.0 0.0
0.0 0.0 0.0
0.0 0.0 0.0
0.0 0.0 0.0
0.0 0.0 0.0
0.0 0.0 0.0
0.0 0.0 0.0
0.0 0.0 0.0
0.0 0.0 0.0
0.0 0.0 0.0
0.0 0.0 0.0
0.0 0.0 0.0
0.0 0.0 0.0
0.0 0.0 0.0
CELL_DATA 40
SCALARS material_index double
LOOKUP_TABLE default
1.0
1.0
1.0
1.0
1.0
1.0
1.0
1.0
1.0
1.0
1.0
1.0
1.0
1.0
1.0
1.0
1.0
1.0
1.0
1.0
1.0
1.0
1.0
1.0
1.0
1.0
1.0
1.0
1.0
1.0
1.0
1.0
1.0
1.0
1.0
1.0
1.0
1.0
1.0
1.0
SCALARS material_prop_density double
LOOKUP_TABLE default
1500.0
1500.0
1500.0
1500.0
1500.0
1500.0
1500.0
1500.0
1500.0
1500.0
1500.0
1500.0
1500.0
1500.0
1500.0
1500.0
1500.0
1500.0
1500.0
1500.0
1500.0
1500.0
1500.0
1500.0
1500.0
1500.0
1500.0
1500.0
1500.0
1500.0
1500.0
1500.0
1500.0
1500.0
1500.0
1500.0
1500.0
1500.0
1500.0
1500.0
SCALARS material_prop_Young double
LOOKUP_TABLE default
30000000.0
30000000.0
30000000.0
30000000.0
30000000.0
30000000.0
30000000.0
30000000.0
30000000.0
30000000.0
30000000.0
30000000.0
30000000.0
30000000.0
30000000.0
30000000.0
30000000.0
30000000.0
30000000.0
30000000.0
30000000.0
30000000.0
30000000.0
30000000.0
30000000.0
30000000.0
30000000.0
30000000.0
30000000.0
30000000.0
30000000.0
30000000.0
30000000.0
30000000.0
30000000.0
30000000.0
30000000.0
30000000.0
30000000.0
30000000.0
SCALARS material_prop_poisson double
LOOKUP_TABLE default
0.2
0.2
0.2
0.2
0.2
0.2
0.2
0.2
0.2
0.2
0.2
0.2
0.2
0.2
0.2
0.2
0.2
0.2
0.2
0.2
0.2
0.2
0.2
0.2
0.2
0.2
0.2
0.2
0.2
0.2
0.2
0.2
0.2
0.2
0.2
0.2
0.2
0.2
0.2
0.2
