# vtk DataFile Version 2.0
data_33
ASCII
DATASET UNSTRUCTURED_GRID
POINTS 63 float
0.0 0.0 0.0
1.0 0.0 0.0
1.0 10.0 0.0
0.0 10.0 0.0
0.4999999999986921 0.0 0.0
1.0 0.499999999999551 0.0
1.0 0.9999999999991888 0.0
1.0 1.499999999998284 0.0
1.0 1.999999999996824 0.0
1.0 2.499999999995364 0.0
1.0 2.999999999993903 0.0
1.0 3.499999999992442 0.0
1.0 3.999999999991017 0.0
1.0 4.499999999991639 0.0
1.0 4.999999999992399 0.0
1.0 5.499999999993159 0.0
1.0 5.99999999999392 0.0
1.0 6.499999999994679 0.0
1.0 6.999999999995438 0.0
1.0 7.499999999996199 0.0
1.0 7.99999999999696 0.0
1.0 8.49999999999772 0.0
1.0 8.99999999999848 0.0
1.0 9.49999999999924 0.0
0.5000000000020595 10.0 0.0
0.0 9.5 0.0
0.0 8.999999999999998 0.0
0.0 8.499999999999998 0.0
0.0 7.999999999999996 0.0
0.0 7.499999999999995 0.0
0.0 6.999999999999995 0.0
0.0 6.499999999999996 0.0
0.0 5.999999999999996 0.0
0.0 5.499999999999996 0.0
0.0 4.999999999999996 0.0
0.0 4.499999999999997 0.0
0.0 3.999999999999996 0.0
0.0 3.499999999999997 0.0
0.0 2.999999999999998 0.0
0.0 2.499999999999998 0.0
0.0 1.999999999999998 0.0
0.0 1.5 0.0
0.0 0.9999999999999982 0.0
0.0 0.5 0.0
0.4999999999988605 0.4999999999997756 0.0
0.4999999999990288 0.9999999999995937 0.0
0.4999999999991972 1.499999999999142 0.0
0.4999999999993656 1.999999999998411 0.0
0.499999999999534 2.499999999997681 0.0
0.4999999999997023 2.999999999996951 0.0
0.4999999999998707 3.49999999999622 0.0
0.5000000000000391 3.999999999995507 0.0
0.5000000000002074 4.499999999995817 0.0
0.5000000000003758 4.999999999996198 0.0
0.5000000000005441 5.499999999996577 0.0
0.5000000000007125 5.999999999996958 0.0
0.500000000000881 6.499999999997339 0.0
0.5000000000010493 6.999999999997716 0.0
0.5000000000012177 7.499999999998098 0.0
0.500000000001386 7.999999999998479 0.0
0.5000000000015543 8.499999999998856 0.0
0.5000000000017226 8.99999999999924 0.0
0.5000000000018909 9.49999999999962 0.0
CELLS 40 200
4 0 4 44 43
4 43 44 45 42
4 42 45 46 41
4 41 46 47 40
4 40 47 48 39
4 39 48 49 38
4 38 49 50 37
4 37 50 51 36
4 36 51 52 35
4 35 52 53 34
4 34 53 54 33
4 33 54 55 32
4 32 55 56 31
4 31 56 57 30
4 30 57 58 29
4 29 58 59 28
4 28 59 60 27
4 27 60 61 26
4 26 61 62 25
4 25 62 24 3
4 4 1 5 44
4 44 5 6 45
4 45 6 7 46
4 46 7 8 47
4 47 8 9 48
4 48 9 10 49
4 49 10 11 50
4 50 11 12 51
4 51 12 13 52
4 52 13 14 53
4 53 14 15 54
4 54 15 16 55
4 55 16 17 56
4 56 17 18 57
4 57 18 19 58
4 58 19 20 59
4 59 20 21 60
4 60 21 22 61
4 61 22 23 62
4 62 23 2 24
CELL_TYPES 40
9
9
9
9
9
9
9
9
9
9
9
9
9
9
9
9
9
9
9
9
9
9
9
9
9
9
9
9
9
9
9
9
9
9
9
9
9
9
9
9
POINT_DATA 63
VECTORS displacement double
0.0 0.0 0.0
0.0 0.0 0.0
0.0 -1.549826558955 0.0
0.0 -1.5498265589545273 0.0
-2.9073154388122304e-15 0.0 0.0
0.0 -0.09002731278350365 0.0
0.0 -0.17957529322134272 0.0
0.0 -0.2692732297319333 0.0
0.0 -0.3589872755457384 0.0
0.0 -0.44852670851432 0.0
0.0 -0.5384186383985806 0.0
0.0 -0.6276891663985279 0.0
0.0 -0.7158888961289238 0.0
0.0 -0.803798948417028 0.0
0.0 -0.8902964255508456 0.0
0.0 -0.9754893349600766 0.0
0.0 -1.058978978365092 0.0
0.0 -1.1379093456193399 0.0
0.0 -1.211556342596518 0.0
0.0 -1.2783248176885171 0.0
0.0 -1.3377054419314545 0.0
0.0 -1.390940131926338 0.0
0.0 -1.4399024386821995 0.0
0.0 -1.4872882661471318 0.0
3.982208655393208e-14 -1.5132277976008912 0.0
0.0 -1.4872882661470872 0.0
0.0 -1.4399024386823176 0.0
0.0 -1.390940131926554 0.0
0.0 -1.3377054419317875 0.0
0.0 -1.2783248176889894 0.0
0.0 -1.2115563425971607 0.0
0.0 -1.13790934562015 0.0
0.0 -1.0589789783660788 0.0
0.0 -0.9754893349612372 0.0
0.0 -0.8902964255521496 0.0
0.0 -0.8037989484184951 0.0
0.0 -0.715888896130503 0.0
0.0 -0.6276891663998646 0.0
0.0 -0.5384186383996834 0.0
0.0 -0.4485267085151475 0.0
0.0 -0.3589872755463005 0.0
0.0 -0.2692732297322478 0.0
0.0 -0.1795752932214894 0.0
0.0 -0.09002731278357813 0.0
-8.469754948889184e-17 -0.09002731308300076 0.0
3.713312217799123e-15 -0.1795752903400356 0.0
-1.3281624884263132e-15 -0.26927323673620035 0.0
-3.791950651698639e-15 -0.3589873087956766 0.0
3.997488492641528e-15 -0.44852645960346355 0.0
-1.3540340099952808e-16 -0.5384188526269347 0.0
-2.4123891298492356e-15 -0.6276919768065841 0.0
2.533721764408863e-15 -0.7158807985698623 0.0
-3.184718826169211e-16 -0.8037863061518463 0.0
-4.002027623311424e-16 -0.8903722554064546 0.0
-3.7069319130943247e-16 -0.9754905287152874 0.0
-3.425735342668884e-16 -1.0586479491286704 0.0
-2.5337782952334567e-16 -1.1380403095366778 0.0
-1.3623907779137085e-15 -1.212190546881746 0.0
1.7400912318344558e-15 -1.2782397208954328 0.0
-6.49992391456933e-16 -1.3375382996759744 0.0
-8.03365409348184e-16 -1.3905304667496041 0.0
-7.325548757836524e-15 -1.4393880598924464 0.0
-3.914686256831982e-14 -1.4851252090840672 0.0
VECTORS velocity double
0.0 0.0 0.0
0.0 0.0 0.0
0.0 16.850090900655573 0.0
0.0 16.850090900657232 0.0
-1.3153957547733655e-12 0.0 0.0
0.0 0.27104927061891915 0.0
0.0 -0.056728760656187927 0.0
0.0 -0.2353336332276088 0.0
0.0 0.17294992127595066 0.0
0.0 0.23761166247826626 0.0
0.0 0.030352954198736626 0.0
0.0 0.2922221203035935 0.0
0.0 0.34085100227081355 0.0
0.0 0.526847381162483 0.0
0.0 1.2831613487131346 0.0
0.0 1.7991203919978371 0.0
0.0 3.0272024180855315 0.0
0.0 4.326168626041204 0.0
0.0 5.1443123455785305 0.0
0.0 6.73067871580127 0.0
0.0 8.823817904969665 0.0
0.0 11.49941378781367 0.0
0.0 14.127375901644603 0.0
0.0 16.14318132945372 0.0
8.746797269451718e-13 16.582890929097452 0.0
0.0 16.143181329455214 0.0
0.0 14.12737590165284 0.0
0.0 11.499413787826834 0.0
0.0 8.823817904987564 0.0
0.0 6.730678715817804 0.0
0.0 5.144312345592866 0.0
0.0 4.326168626049318 0.0
0.0 3.0272024181062474 0.0
0.0 1.7991203920082377 0.0
0.0 1.2831613487232953 0.0
0.0 0.5268473811728214 0.0
0.0 0.34085100226579534 0.0
0.0 0.29222212031094763 0.0
0.0 0.030352954199054594 0.0
0.0 0.23761166247160315 0.0
0.0 0.17294992128158793 0.0
0.0 -0.2353336332256184 0.0
0.0 -0.056728760659418676 0.0
0.0 0.2710492706195813 0.0
8.247472373188294e-13 0.27104940457269544 0.0
8.093969641974512e-13 -0.05672718374763619 0.0
-2.221392707585281e-12 -0.23534574559305277 0.0
1.1742816806025776e-12 0.17297151946373823 0.0
1.285597404501302e-12 0.23775193869544342 0.0
-2.3502952204489632e-12 0.029540802898074148 0.0
1.657903382586327e-12 0.29263240512492317 0.0
-1.6750496119392612e-13 0.34894930470510843 0.0
-5.772143849466576e-13 0.5075714772086055 0.0
5.424376082729622e-13 1.2532140949714083 0.0
-5.78307333737764e-13 1.945902872877097 0.0
1.1517970369159237e-13 3.025118210482063 0.0
-1.3823032689737378e-12 3.8785497259502275 0.0
1.3487935544384623e-12 5.318059329444326 0.0
9.278398942803653e-13 7.1343408544501585 0.0
-8.974529317755585e-13 8.879680987927605 0.0
6.462778958864698e-14 11.761595710788212 0.0
-1.0362399723422869e-12 13.929062317134667 0.0
9.96209248598192e-14 16.22658582587584 0.0
VECTORS boundary_conditions double
1.0 1.0 0.0
1.0 1.0 0.0
1.0 0.0 0.0
1.0 0.0 0.0
0.0 1.0 0.0
1.0 0.0 0.0
1.0 0.0 0.0
1.0 0.0 0.0
1.0 0.0 0.0
1.0 0.0 0.0
1.0 0.0 0.0
1.0 0.0 0.0
1.0 0.0 0.0
1.0 0.0 0.0
1.0 0.0 0.0
1.0 0.0 0.0
1.0 0.0 0.0
1.0 0.0 0.0
1.0 0.0 0.0
1.0 0.0 0.0
1.0 0.0 0.0
1.0 0.0 0.0
1.0 0.0 0.0
1.0 0.0 0.0
0.0 0.0 0.0
1.0 0.0 0.0
1.0 0.0 0.0
1.0 0.0 0.0
1.0 0.0 0.0
1.0 0.0 0.0
1.0 0.0 0.0
1.0 0.0 0.0
1.0 0.0 0.0
1.0 0.0 0.0
1.0 0.0 0.0
1.0 0.0 0.0
1.0 0.0 0.0
1.0 0.0 0.0
1.0 0.0 0.0
1.0 0.0 0.0
1.0 0.0 0.0
1.0 0.0 0.0
1.0 0.0 0.0
1.0 0.0 0.0
0.0 0.0 0.0
0.0 0.0 0.0
0.0 0.0 0.0
0.0 0.0 0.0
0.0 0.0 0.0
0.0 0.0 0.0
0.0 0.0 0.0
0.0 0.0 0.0
0.0 0.0 0.0
0.0 0.0 0.0
0.0 0.0 0.0
0.0 0.0 0.0
0.0 0.0 0.0
0.0 0.0 0.0
0.0 0.0 0.0
0.0 0.0 0.0
0.0 0.0 0.0
0.0 0.0 0.0
0.0 0.0 0.0
CELL_DATA 40
SCALARS material_index double
LOOKUP_TABLE default
1.0
1.0
1.0
1.0
1.0
1.0
1.0
1.0
1.0
1.0
1.0
1.0
1.0
1.0
1.0
1.0
1.0
1.0
1.0
1.0
1.0
1.0
1.0
1.0
1.0
1.0
1.0
1.0
1.0
1.0
1.0
1.0
1.0
1.0
1.0
1.0
1.0
1.0
1.0
1.0
SCALARS material_prop_density double
LOOKUP_TABLE default
1500.0
1500.0
1500.0
1500.0
1500.0
1500.0
1500.0
1500.0
1500.0
1500.0
1500.0
1500.0
1500.0
1500.0
1500.0
1500.0
1500.0
1500.0
1500.0
1500.0
1500.0
1500.0
1500.0
1500.0
1500.0
1500.0
1500.0
1500.0
1500.0
1500.0
1500.0
1500.0
1500.0
1500.0
1500.0
1500.0
1500.0
1500.0
1500.0
1500.0
SCALARS material_prop_Young double
LOOKUP_TABLE default
30000000.0
30000000.0
30000000.0
30000000.0
30000000.0
30000000.0
30000000.0
30000000.0
30000000.0
30000000.0
30000000.0
30000000.0
30000000.0
30000000.0
30000000.0
30000000.0
30000000.0
30000000.0
30000000.0
30000000.0
30000000.0
30000000.0
30000000.0
30000000.0
30000000.0
30000000.0
30000000.0
30000000.0
30000000.0
30000000.0
30000000.0
30000000.0
30000000.0
30000000.0
30000000.0
30000000.0
30000000.0
30000000.0
30000000.0
30000000.0
SCALARS material_prop_poisson double
LOOKUP_TABLE default
0.2
0.2
0.2
0.2
0.2
0.2
0.2
0.2
0.2
0.2
0.2
0.2
0.2
0.2
0.2
0.2
0.2
0.2
0.2
0.2
0.2
0.2
0.2
0.2
0.2
0.2
0.2
0.2
0.2
0.2
0.2
0.2
0.2
0.2
0.2
0.2
0.2
0.2
0.2
0.2
