# vtk DataFile Version 2.0
data_78
ASCII
DATASET UNSTRUCTURED_GRID
POINTS 63 float
0.0 0.0 0.0
1.0 0.0 0.0
1.0 10.0 0.0
0.0 10.0 0.0
0.4999999999986921 0.0 0.0
1.0 0.499999999999551 0.0
1.0 0.9999999999991888 0.0
1.0 1.499999999998284 0.0
1.0 1.999999999996824 0.0
1.0 2.499999999995364 0.0
1.0 2.999999999993903 0.0
1.0 3.499999999992442 0.0
1.0 3.999999999991017 0.0
1.0 4.499999999991639 0.0
1.0 4.999999999992399 0.0
1.0 5.499999999993159 0.0
1.0 5.99999999999392 0.0
1.0 6.499999999994679 0.0
1.0 6.999999999995438 0.0
1.0 7.499999999996199 0.0
1.0 7.99999999999696 0.0
1.0 8.49999999999772 0.0
1.0 8.99999999999848 0.0
1.0 9.49999999999924 0.0
0.5000000000020595 10.0 0.0
0.0 9.5 0.0
0.0 8.999999999999998 0.0
0.0 8.499999999999998 0.0
0.0 7.999999999999996 0.0
0.0 7.499999999999995 0.0
0.0 6.999999999999995 0.0
0.0 6.499999999999996 0.0
0.0 5.999999999999996 0.0
0.0 5.499999999999996 0.0
0.0 4.999999999999996 0.0
0.0 4.499999999999997 0.0
0.0 3.999999999999996 0.0
0.0 3.499999999999997 0.0
0.0 2.999999999999998 0.0
0.0 2.499999999999998 0.0
0.0 1.999999999999998 0.0
0.0 1.5 0.0
0.0 0.9999999999999982 0.0
0.0 0.5 0.0
0.4999999999988605 0.4999999999997756 0.0
0.4999999999990288 0.9999999999995937 0.0
0.4999999999991972 1.499999999999142 0.0
0.4999999999993656 1.999999999998411 0.0
0.499999999999534 2.499999999997681 0.0
0.4999999999997023 2.999999999996951 0.0
0.4999999999998707 3.49999999999622 0.0
0.5000000000000391 3.999999999995507 0.0
0.5000000000002074 4.499999999995817 0.0
0.5000000000003758 4.999999999996198 0.0
0.5000000000005441 5.499999999996577 0.0
0.5000000000007125 5.999999999996958 0.0
0.500000000000881 6.499999999997339 0.0
0.5000000000010493 6.999999999997716 0.0
0.5000000000012177 7.499999999998098 0.0
0.500000000001386 7.999999999998479 0.0
0.5000000000015543 8.499999999998856 0.0
0.5000000000017226 8.99999999999924 0.0
0.5000000000018909 9.49999999999962 0.0
CELLS 40 200
4 0 4 44 43
4 43 44 45 42
4 42 45 46 41
4 41 46 47 40
4 40 47 48 39
4 39 48 49 38
4 38 49 50 37
4 37 50 51 36
4 36 51 52 35
4 35 52 53 34
4 34 53 54 33
4 33 54 55 32
4 32 55 56 31
4 31 56 57 30
4 30 57 58 29
4 29 58 59 28
4 28 59 60 27
4 27 60 61 26
4 26 61 62 25
4 25 62 24 3
4 4 1 5 44
4 44 5 6 45
4 45 6 7 46
4 46 7 8 47
4 47 8 9 48
4 48 9 10 49
4 49 10 11 50
4 50 11 12 51
4 51 12 13 52
4 52 13 14 53
4 53 14 15 54
4 54 15 16 55
4 55 16 17 56
4 56 17 18 57
4 57 18 19 58
4 58 19 20 59
4 59 20 21 60
4 60 21 22 61
4 61 22 23 62
4 62 23 2 24
CELL_TYPES 40
9
9
9
9
9
9
9
9
9
9
9
9
9
9
9
9
9
9
9
9
9
9
9
9
9
9
9
9
9
9
9
9
9
9
9
9
9
9
9
9
POINT_DATA 63
VECTORS displacement double
0.0 0.0 0.0
0.0 0.0 0.0
0.0 -1.4988981877865943 0.0
0.0 -1.4988981877861252 0.0
-9.93812280040581e-16 0.0 0.0
0.0 -0.08536751101543816 0.0
0.0 -0.17250671654393238 0.0
0.0 -0.2632200397197321 0.0
0.0 -0.357400561061741 0.0
0.0 -0.45436980235855906 0.0
0.0 -0.5520895218672024 0.0
0.0 -0.6479496417097913 0.0
0.0 -0.7399122023669582 0.0
0.0 -0.8264101311736436 0.0
0.0 -0.9067424481118411 0.0
0.0 -0.9811204821489138 0.0
0.0 -1.05029803473189 0.0
0.0 -1.1153610023989078 0.0
0.0 -1.176731062422042 0.0
0.0 -1.2343618499206899 0.0
0.0 -1.2889367541028385 0.0
0.0 -1.34024725051166 0.0
0.0 -1.3887043711004339 0.0
0.0 -1.4361163937367107 0.0
3.877950305919757e-14 -1.4627961815749364 0.0
0.0 -1.4361163937366788 0.0
0.0 -1.3887043711005638 0.0
0.0 -1.3402472505118828 0.0
0.0 -1.288936754103158 0.0
0.0 -1.2343618499211177 0.0
0.0 -1.1767310624225835 0.0
0.0 -1.1153610023995797 0.0
0.0 -1.0502980347327013 0.0
0.0 -0.9811204821498949 0.0
0.0 -0.9067424481130143 0.0
0.0 -0.8264101311750379 0.0
0.0 -0.7399122023685653 0.0
0.0 -0.6479496417112158 0.0
0.0 -0.5520895218683844 0.0
0.0 -0.4543698023594649 0.0
0.0 -0.35740056106234647 0.0
0.0 -0.263220039720045 0.0
0.0 -0.17250671654407465 0.0
0.0 -0.08536751101551338 0.0
6.687089134547883e-16 -0.08535019509870771 0.0
-1.072186397238461e-15 -0.1726137971252613 0.0
3.89216059256491e-16 -0.26319409457494514 0.0
1.7520226591321213e-16 -0.3572505445538991 0.0
-1.5285308341824015e-16 -0.45439739265267753 0.0
-4.493599084676318e-16 -0.5521564615094421 0.0
-2.990167532476008e-16 -0.6480357439213321 0.0
1.6215819292216724e-15 -0.7399672935232308 0.0
-6.12507566391987e-16 -0.826330131118646 0.0
1.3768078832468945e-15 -0.9066810652523228 0.0
3.530104065859409e-16 -0.9810013997553008 0.0
-1.8324325519217086e-15 -1.0502540270952 0.0
-5.33427009522833e-18 -1.1153350975515766 0.0
1.4112142773134673e-15 -1.1767575570001416 0.0
-1.8929359762247685e-16 -1.2344235493943443 0.0
-2.9535476560024005e-15 -1.2890044348984875 0.0
7.223459529143333e-16 -1.3403439251588114 0.0
-4.7757243718510434e-15 -1.3886921584599898 0.0
-3.8805737413121526e-14 -1.4344142428511693 0.0
VECTORS velocity double
0.0 0.0 0.0
0.0 0.0 0.0
0.0 -12.238730483953656 0.0
0.0 -12.238730483954416 0.0
-3.6863738495584764e-13 0.0 0.0
0.0 0.9725711508973589 0.0
0.0 1.7013690941983408 0.0
0.0 2.118570046406207 0.0
0.0 2.1413298374107077 0.0
0.0 1.7780269077827278 0.0
0.0 1.1374482668598294 0.0
0.0 0.42986731734535155 0.0
0.0 -0.47585497274058675 0.0
0.0 -1.663655761119843 0.0
0.0 -2.891408876273614 0.0
0.0 -4.526029634695492 0.0
0.0 -6.3109677227087815 0.0
0.0 -7.975163900250996 0.0
0.0 -9.247612809609794 0.0
0.0 -10.206551625718856 0.0
0.0 -10.790468884050505 0.0
0.0 -11.296524191881637 0.0
0.0 -11.700266538056288 0.0
0.0 -12.075604329110401 0.0
-2.558752997273702e-12 -12.269486843507181 0.0
0.0 -12.075604329113236 0.0
0.0 -11.700266538057791 0.0
0.0 -11.296524191884503 0.0
0.0 -10.790468884054006 0.0
0.0 -10.206551625725856 0.0
0.0 -9.247612809620653 0.0
0.0 -7.9751639002657555 0.0
0.0 -6.310967722729838 0.0
0.0 -4.5260296347212225 0.0
0.0 -2.89140887629463 0.0
0.0 -1.6636557611399816 0.0
0.0 -0.47585497276073596 0.0
0.0 0.42986731733396155 0.0
0.0 1.1374482668503756 0.0
0.0 1.7780269077784228 0.0
0.0 2.1413298374099803 0.0
0.0 2.1185700464068153 0.0
0.0 1.701369094199301 0.0
0.0 0.9725711508992356 0.0
1.3771416225157662e-14 0.8787681557970186 0.0
6.6998103483881e-14 1.7158858596711108 0.0
3.8817359058109875e-13 2.247523163536612 0.0
-6.884513149890497e-14 2.0934706560248406 0.0
-7.676716600569819e-13 1.6846267407775386 0.0
8.848400666470185e-13 1.1391681735803019 0.0
-4.363941740449311e-13 0.4155952189509815 0.0
5.823831472409779e-13 -0.3795640747127731 0.0
-5.581230905289325e-13 -1.6193980595661532 0.0
3.6493930218302517e-13 -2.8756501546048288 0.0
-2.389683273763672e-13 -4.530333273011541 0.0
-3.258172965611527e-13 -6.388608020562447 0.0
2.7309923463174707e-13 -8.006163037303818 0.0
-3.0374136897390165e-13 -9.3405104705239 0.0
5.379734156686168e-13 -10.223124646866717 0.0
-1.369614696839383e-13 -10.856736622071452 0.0
-3.136208594792298e-14 -11.290557201988983 0.0
1.2631072661625484e-12 -11.740541019454053 0.0
-6.707304588853384e-13 -12.056880785875222 0.0
VECTORS boundary_conditions double
1.0 1.0 0.0
1.0 1.0 0.0
1.0 0.0 0.0
1.0 0.0 0.0
0.0 1.0 0.0
1.0 0.0 0.0
1.0 0.0 0.0
1.0 0.0 0.0
1.0 0.0 0.0
1.0 0.0 0.0
1.0 0.0 0.0
1.0 0.0 0.0
1.0 0.0 0.0
1.0 0.0 0.0
1.0 0.0 0.0
1.0 0.0 0.0
1.0 0.0 0.0
1.0 0.0 0.0
1.0 0.0 0.0
1.0 0.0 0.0
1.0 0.0 0.0
1.0 0.0 0.0
1.0 0.0 0.0
1.0 0.0 0.0
0.0 0.0 0.0
1.0 0.0 0.0
1.0 0.0 0.0
1.0 0.0 0.0
1.0 0.0 0.0
1.0 0.0 0.0
1.0 0.0 0.0
1.0 0.0 0.0
1.0 0.0 0.0
1.0 0.0 0.0
1.0 0.0 0.0
1.0 0.0 0.0
1.0 0.0 0.0
1.0 0.0 0.0
1.0 0.0 0.0
1.0 0.0 0.0
1.0 0.0 0.0
1.0 0.0 0.0
1.0 0.0 0.0
1.0 0.0 0.0
0.0 0.0 0.0
0.0 0.0 0.0
0.0 0.0 0.0
0.0 0.0 0.0
0.0 0.0 0.0
0.0 0.0 0.0
0.0 0.0 0.0
0.0 0.0 0.0
0.0 0.0 0.0
0.0 0.0 0.0
0.0 0.0 0.0
0.0 0.0 0.0
0.0 0.0 0.0
0.0 0.0 0.0
0.0 0.0 0.0
0.0 0.0 0.0
0.0 0.0 0.0
0.0 0.0 0.0
0.0 0.0 0.0
CELL_DATA 40
SCALARS material_index double
LOOKUP_TABLE default
1.0
1.0
1.0
1.0
1.0
1.0
1.0
1.0
1.0
1.0
1.0
1.0
1.0
1.0
1.0
1.0
1.0
1.0
1.0
1.0
1.0
1.0
1.0
1.0
1.0
1.0
1.0
1.0
1.0
1.0
1.0
1.0
1.0
1.0
1.0
1.0
1.0
1.0
1.0
1.0
SCALARS material_prop_density double
LOOKUP_TABLE default
1500.0
1500.0
1500.0
1500.0
1500.0
1500.0
1500.0
1500.0
1500.0
1500.0
1500.0
1500.0
1500.0
1500.0
1500.0
1500.0
1500.0
1500.0
1500.0
1500.0
1500.0
1500.0
1500.0
1500.0
1500.0
1500.0
1500.0
1500.0
1500.0
1500.0
1500.0
1500.0
1500.0
1500.0
1500.0
1500.0
1500.0
1500.0
1500.0
1500.0
SCALARS material_prop_Young double
LOOKUP_TABLE default
30000000.0
30000000.0
30000000.0
30000000.0
30000000.0
30000000.0
30000000.0
30000000.0
30000000.0
30000000.0
30000000.0
30000000.0
30000000.0
30000000.0
30000000.0
30000000.0
30000000.0
30000000.0
30000000.0
30000000.0
30000000.0
30000000.0
30000000.0
30000000.0
30000000.0
30000000.0
30000000.0
30000000.0
30000000.0
30000000.0
30000000.0
30000000.0
30000000.0
30000000.0
30000000.0
30000000.0
30000000.0
30000000.0
30000000.0
30000000.0
SCALARS material_prop_poisson double
LOOKUP_TABLE default
0.2
0.2
0.2
0.2
0.2
0.2
0.2
0.2
0.2
0.2
0.2
0.2
0.2
0.2
0.2
0.2
0.2
0.2
0.2
0.2
0.2
0.2
0.2
0.2
0.2
0.2
0.2
0.2
0.2
0.2
0.2
0.2
0.2
0.2
0.2
0.2
0.2
0.2
0.2
0.2
