# vtk DataFile Version 2.0
data_55
ASCII
DATASET UNSTRUCTURED_GRID
POINTS 63 float
0.0 0.0 0.0
1.0 0.0 0.0
1.0 10.0 0.0
0.0 10.0 0.0
0.4999999999986921 0.0 0.0
1.0 0.499999999999551 0.0
1.0 0.9999999999991888 0.0
1.0 1.499999999998284 0.0
1.0 1.999999999996824 0.0
1.0 2.499999999995364 0.0
1.0 2.999999999993903 0.0
1.0 3.499999999992442 0.0
1.0 3.999999999991017 0.0
1.0 4.499999999991639 0.0
1.0 4.999999999992399 0.0
1.0 5.499999999993159 0.0
1.0 5.99999999999392 0.0
1.0 6.499999999994679 0.0
1.0 6.999999999995438 0.0
1.0 7.499999999996199 0.0
1.0 7.99999999999696 0.0
1.0 8.49999999999772 0.0
1.0 8.99999999999848 0.0
1.0 9.49999999999924 0.0
0.5000000000020595 10.0 0.0
0.0 9.5 0.0
0.0 8.999999999999998 0.0
0.0 8.499999999999998 0.0
0.0 7.999999999999996 0.0
0.0 7.499999999999995 0.0
0.0 6.999999999999995 0.0
0.0 6.499999999999996 0.0
0.0 5.999999999999996 0.0
0.0 5.499999999999996 0.0
0.0 4.999999999999996 0.0
0.0 4.499999999999997 0.0
0.0 3.999999999999996 0.0
0.0 3.499999999999997 0.0
0.0 2.999999999999998 0.0
0.0 2.499999999999998 0.0
0.0 1.999999999999998 0.0
0.0 1.5 0.0
0.0 0.9999999999999982 0.0
0.0 0.5 0.0
0.4999999999988605 0.4999999999997756 0.0
0.4999999999990288 0.9999999999995937 0.0
0.4999999999991972 1.499999999999142 0.0
0.4999999999993656 1.999999999998411 0.0
0.499999999999534 2.499999999997681 0.0
0.4999999999997023 2.999999999996951 0.0
0.4999999999998707 3.49999999999622 0.0
0.5000000000000391 3.999999999995507 0.0
0.5000000000002074 4.499999999995817 0.0
0.5000000000003758 4.999999999996198 0.0
0.5000000000005441 5.499999999996577 0.0
0.5000000000007125 5.999999999996958 0.0
0.500000000000881 6.499999999997339 0.0
0.5000000000010493 6.999999999997716 0.0
0.5000000000012177 7.499999999998098 0.0
0.500000000001386 7.999999999998479 0.0
0.5000000000015543 8.499999999998856 0.0
0.5000000000017226 8.99999999999924 0.0
0.5000000000018909 9.49999999999962 0.0
CELLS 40 200
4 0 4 44 43
4 43 44 45 42
4 42 45 46 41
4 41 46 47 40
4 40 47 48 39
4 39 48 49 38
4 38 49 50 37
4 37 50 51 36
4 36 51 52 35
4 35 52 53 34
4 34 53 54 33
4 33 54 55 32
4 32 55 56 31
4 31 56 57 30
4 30 57 58 29
4 29 58 59 28
4 28 59 60 27
4 27 60 61 26
4 26 61 62 25
4 25 62 24 3
4 4 1 5 44
4 44 5 6 45
4 45 6 7 46
4 46 7 8 47
4 47 8 9 48
4 48 9 10 49
4 49 10 11 50
4 50 11 12 51
4 51 12 13 52
4 52 13 14 53
4 53 14 15 54
4 54 15 16 55
4 55 16 17 56
4 56 17 18 57
4 57 18 19 58
4 58 19 20 59
4 59 20 21 60
4 60 21 22 61
4 61 22 23 62
4 62 23 2 24
CELL_TYPES 40
9
9
9
9
9
9
9
9
9
9
9
9
9
9
9
9
9
9
9
9
9
9
9
9
9
9
9
9
9
9
9
9
9
9
9
9
9
9
9
9
POINT_DATA 63
VECTORS displacement double
0.0 0.0 0.0
0.0 0.0 0.0
0.0 -0.13862394331265174 0.0
0.0 -0.1386239433121953 0.0
-2.1109531558528868e-15 0.0 0.0
0.0 0.000438032053083956 0.0
0.0 0.0006335418304069439 0.0
0.0 0.0009735660065339865 0.0
0.0 0.00047008189790126155 0.0
0.0 -0.0012260676281296112 0.0
0.0 -0.003800489283744431 0.0
0.0 -0.006752535287869702 0.0
0.0 -0.009052873770442595 0.0
0.0 -0.008845743679579264 0.0
0.0 -0.005283399950738619 0.0
0.0 -0.00017270361712262792 0.0
0.0 0.005841980722647833 0.0
0.0 0.010542316254323137 0.0
0.0 0.011558599618439743 0.0
0.0 0.00733522128690288 0.0
0.0 -0.0032097963926556445 0.0
0.0 -0.02061541589384508 0.0
0.0 -0.046104723010794615 0.0
0.0 -0.08018157905317409 0.0
3.677574208559263e-14 -0.1022382015497174 0.0
0.0 -0.08018157905313972 0.0
0.0 -0.046104723010874545 0.0
0.0 -0.020615415893945294 0.0
0.0 -0.003209796392741367 0.0
0.0 0.0073352212868404995 0.0
0.0 0.011558599618425137 0.0
0.0 0.010542316254357155 0.0
0.0 0.0058419807227154535 0.0
0.0 -0.00017270361705057222 0.0
0.0 -0.0052833999506685944 0.0
0.0 -0.008845743679546233 0.0
0.0 -0.009052873770468865 0.0
0.0 -0.006752535287908808 0.0
0.0 -0.0038004892837763663 0.0
0.0 -0.0012260676281498149 0.0
0.0 0.00047008189789327987 0.0
0.0 0.0009735660065391414 0.0
0.0 0.0006335418304081986 0.0
0.0 0.0004380320530811121 0.0
2.289259305257554e-15 0.00043970077762868156 0.0
-2.034526875089639e-15 0.000636301174061286 0.0
-3.021454014608926e-16 0.0009595285987407133 0.0
2.462655231977989e-15 0.0004699282462026018 0.0
-2.2132787834612674e-15 -0.0011616100856260917 0.0
-4.4014016347550585e-16 -0.003846655827997598 0.0
4.95288833916556e-17 -0.006920351464151948 0.0
2.7154162856723936e-15 -0.008881572087802532 0.0
-2.5212015481968262e-15 -0.00861041999080091 0.0
2.5135341570801087e-15 -0.005461286694491951 0.0
8.61744640632593e-16 -0.00031845688229769465 0.0
-1.5386998859670436e-15 0.005677120711756616 0.0
-9.746503269699418e-16 0.010501130905449584 0.0
9.330915688198825e-16 0.011700465516511546 0.0
1.3386077210598518e-16 0.00745043703622972 0.0
-1.0450339210617271e-15 -0.002957978750848218 0.0
1.5488250752150943e-16 -0.020486165640540444 0.0
-6.260789336254452e-15 -0.04578713171817799 0.0
-3.85519568037099e-14 -0.07827368326812832 0.0
VECTORS velocity double
0.0 0.0 0.0
0.0 0.0 0.0
0.0 5.703102278510391 0.0
0.0 5.703102278508 0.0
-3.5422256637827865e-13 0.0 0.0
0.0 -0.6575091307279701 0.0
0.0 -0.699682803105696 0.0
0.0 -0.49422619999249373 0.0
0.0 0.2411138191882518 0.0
0.0 0.9410037893130853 0.0
0.0 0.9788505076313341 0.0
0.0 0.7578268993200494 0.0
0.0 -0.033676600938219226 0.0
0.0 -0.7683085568697243 0.0
0.0 -1.4528755891205916 0.0
0.0 -2.0092462302405747 0.0
0.0 -2.043048967781896 0.0
0.0 -1.7252318248065166 0.0
0.0 -0.46594983030757176 0.0
0.0 0.6995661513532845 0.0
0.0 2.2342717277524526 0.0
0.0 3.6446662028300203 0.0
0.0 4.940776127779902 0.0
0.0 5.495966690942847 0.0
-9.419228509268503e-14 5.630918261370631 0.0
0.0 5.4959666909425025 0.0
0.0 4.9407761277823266 0.0
0.0 3.6446662028376124 0.0
0.0 2.234271727760925 0.0
0.0 0.699566151364686 0.0
0.0 -0.4659498302939822 0.0
0.0 -1.7252318247962766 0.0
0.0 -2.043048967782651 0.0
0.0 -2.009246230242102 0.0
0.0 -1.4528755891307212 0.0
0.0 -0.7683085568834231 0.0
0.0 -0.03367660095795788 0.0
0.0 0.7578268993170291 0.0
0.0 0.9788505076285454 0.0
0.0 0.9410037893137836 0.0
0.0 0.24111381919722064 0.0
0.0 -0.49422619999122847 0.0
0.0 -0.6996828031061768 0.0
0.0 -0.6575091307261898 0.0
3.105228199356481e-13 -0.6554900997242374 0.0
-3.0405962860674396e-13 -0.703395298481278 0.0
-1.4974181311566447e-13 -0.5002766098658387 0.0
-3.3463312134510443e-13 0.26857237614486873 0.0
2.4581164716339343e-12 0.9396259779588448 0.0
-2.4504615962567655e-12 0.8773719377353837 0.0
-3.3286299256567817e-13 0.832678864291284 0.0
2.1567346886535794e-12 0.15649127412119213 0.0
-5.622646729939525e-13 -0.9572078801895394 0.0
-1.2651478301746788e-12 -1.5994211341889075 0.0
6.797831869183741e-13 -1.9590827602381322 0.0
3.145010347766381e-13 -2.034416993829811 0.0
-1.3418711686113108e-12 -1.5133720630536602 0.0
8.358001800260942e-13 -0.4225604230028184 0.0
2.4442558712416493e-13 0.8006878744309525 0.0
-5.850880864026888e-14 2.212461524245815 0.0
-4.573646556684838e-13 3.619619684280078 0.0
3.4203033079559405e-13 4.878304990705262 0.0
4.4872400707483934e-13 5.414604359970861 0.0
VECTORS boundary_conditions double
1.0 1.0 0.0
1.0 1.0 0.0
1.0 0.0 0.0
1.0 0.0 0.0
0.0 1.0 0.0
1.0 0.0 0.0
1.0 0.0 0.0
1.0 0.0 0.0
1.0 0.0 0.0
1.0 0.0 0.0
1.0 0.0 0.0
1.0 0.0 0.0
1.0 0.0 0.0
1.0 0.0 0.0
1.0 0.0 0.0
1.0 0.0 0.0
1.0 0.0 0.0
1.0 0.0 0.0
1.0 0.0 0.0
1.0 0.0 0.0
1.0 0.0 0.0
1.0 0.0 0.0
1.0 0.0 0.0
1.0 0.0 0.0
0.0 0.0 0.0
1.0 0.0 0.0
1.0 0.0 0.0
1.0 0.0 0.0
1.0 0.0 0.0
1.0 0.0 0.0
1.0 0.0 0.0
1.0 0.0 0.0
1.0 0.0 0.0
1.0 0.0 0.0
1.0 0.0 0.0
1.0 0.0 0.0
1.0 0.0 0.0
1.0 0.0 0.0
1.0 0.0 0.0
1.0 0.0 0.0
1.0 0.0 0.0
1.0 0.0 0.0
1.0 0.0 0.0
1.0 0.0 0.0
0.0 0.0 0.0
0.0 0.0 0.0
0.0 0.0 0.0
0.0 0.0 0.0
0.0 0.0 0.0
0.0 0.0 0.0
0.0 0.0 0.0
0.0 0.0 0.0
0.0 0.0 0.0
0.0 0.0 0.0
0.0 0.0 0.0
0.0 0.0 0.0
0.0 0.0 0.0
0.0 0.0 0.0
0.0 0.0 0.0
0.0 0.0 0.0
0.0 0.0 0.0
0.0 0.0 0.0
0.0 0.0 0.0
CELL_DATA 40
SCALARS material_index double
LOOKUP_TABLE default
1.0
1.0
1.0
1.0
1.0
1.0
1.0
1.0
1.0
1.0
1.0
1.0
1.0
1.0
1.0
1.0
1.0
1.0
1.0
1.0
1.0
1.0
1.0
1.0
1.0
1.0
1.0
1.0
1.0
1.0
1.0
1.0
1.0
1.0
1.0
1.0
1.0
1.0
1.0
1.0
SCALARS material_prop_density double
LOOKUP_TABLE default
1500.0
1500.0
1500.0
1500.0
1500.0
1500.0
1500.0
1500.0
1500.0
1500.0
1500.0
1500.0
1500.0
1500.0
1500.0
1500.0
1500.0
1500.0
1500.0
1500.0
1500.0
1500.0
1500.0
1500.0
1500.0
1500.0
1500.0
1500.0
1500.0
1500.0
1500.0
1500.0
1500.0
1500.0
1500.0
1500.0
1500.0
1500.0
1500.0
1500.0
SCALARS material_prop_Young double
LOOKUP_TABLE default
30000000.0
30000000.0
30000000.0
30000000.0
30000000.0
30000000.0
30000000.0
30000000.0
30000000.0
30000000.0
30000000.0
30000000.0
30000000.0
30000000.0
30000000.0
30000000.0
30000000.0
30000000.0
30000000.0
30000000.0
30000000.0
30000000.0
30000000.0
30000000.0
30000000.0
30000000.0
30000000.0
30000000.0
30000000.0
30000000.0
30000000.0
30000000.0
30000000.0
30000000.0
30000000.0
30000000.0
30000000.0
30000000.0
30000000.0
30000000.0
SCALARS material_prop_poisson double
LOOKUP_TABLE default
0.2
0.2
0.2
0.2
0.2
0.2
0.2
0.2
0.2
0.2
0.2
0.2
0.2
0.2
0.2
0.2
0.2
0.2
0.2
0.2
0.2
0.2
0.2
0.2
0.2
0.2
0.2
0.2
0.2
0.2
0.2
0.2
0.2
0.2
0.2
0.2
0.2
0.2
0.2
0.2
