# vtk DataFile Version 2.0
data_5
ASCII
DATASET UNSTRUCTURED_GRID
POINTS 63 float
0.0 0.0 0.0
1.0 0.0 0.0
1.0 10.0 0.0
0.0 10.0 0.0
0.4999999999986921 0.0 0.0
1.0 0.499999999999551 0.0
1.0 0.9999999999991888 0.0
1.0 1.499999999998284 0.0
1.0 1.999999999996824 0.0
1.0 2.499999999995364 0.0
1.0 2.999999999993903 0.0
1.0 3.499999999992442 0.0
1.0 3.999999999991017 0.0
1.0 4.499999999991639 0.0
1.0 4.999999999992399 0.0
1.0 5.499999999993159 0.0
1.0 5.99999999999392 0.0
1.0 6.499999999994679 0.0
1.0 6.999999999995438 0.0
1.0 7.499999999996199 0.0
1.0 7.99999999999696 0.0
1.0 8.49999999999772 0.0
1.0 8.99999999999848 0.0
1.0 9.49999999999924 0.0
0.5000000000020595 10.0 0.0
0.0 9.5 0.0
0.0 8.999999999999998 0.0
0.0 8.499999999999998 0.0
0.0 7.999999999999996 0.0
0.0 7.499999999999995 0.0
0.0 6.999999999999995 0.0
0.0 6.499999999999996 0.0
0.0 5.999999999999996 0.0
0.0 5.499999999999996 0.0
0.0 4.999999999999996 0.0
0.0 4.499999999999997 0.0
0.0 3.999999999999996 0.0
0.0 3.499999999999997 0.0
0.0 2.999999999999998 0.0
0.0 2.499999999999998 0.0
0.0 1.999999999999998 0.0
0.0 1.5 0.0
0.0 0.9999999999999982 0.0
0.0 0.5 0.0
0.4999999999988605 0.4999999999997756 0.0
0.4999999999990288 0.9999999999995937 0.0
0.4999999999991972 1.499999999999142 0.0
0.4999999999993656 1.999999999998411 0.0
0.499999999999534 2.499999999997681 0.0
0.4999999999997023 2.999999999996951 0.0
0.4999999999998707 3.49999999999622 0.0
0.5000000000000391 3.999999999995507 0.0
0.5000000000002074 4.499999999995817 0.0
0.5000000000003758 4.999999999996198 0.0
0.5000000000005441 5.499999999996577 0.0
0.5000000000007125 5.999999999996958 0.0
0.500000000000881 6.499999999997339 0.0
0.5000000000010493 6.999999999997716 0.0
0.5000000000012177 7.499999999998098 0.0
0.500000000001386 7.999999999998479 0.0
0.5000000000015543 8.499999999998856 0.0
0.5000000000017226 8.99999999999924 0.0
0.5000000000018909 9.49999999999962 0.0
CELLS 40 200
4 0 4 44 43
4 43 44 45 42
4 42 45 46 41
4 41 46 47 40
4 40 47 48 39
4 39 48 49 38
4 38 49 50 37
4 37 50 51 36
4 36 51 52 35
4 35 52 53 34
4 34 53 54 33
4 33 54 55 32
4 32 55 56 31
4 31 56 57 30
4 30 57 58 29
4 29 58 59 28
4 28 59 60 27
4 27 60 61 26
4 26 61 62 25
4 25 62 24 3
4 4 1 5 44
4 44 5 6 45
4 45 6 7 46
4 46 7 8 47
4 47 8 9 48
4 48 9 10 49
4 49 10 11 50
4 50 11 12 51
4 51 12 13 52
4 52 13 14 53
4 53 14 15 54
4 54 15 16 55
4 55 16 17 56
4 56 17 18 57
4 57 18 19 58
4 58 19 20 59
4 59 20 21 60
4 60 21 22 61
4 61 22 23 62
4 62 23 2 24
CELL_TYPES 40
9
9
9
9
9
9
9
9
9
9
9
9
9
9
9
9
9
9
9
9
9
9
9
9
9
9
9
9
9
9
9
9
9
9
9
9
9
9
9
9
POINT_DATA 63
VECTORS displacement double
0.0 0.0 0.0
0.0 0.0 0.0
0.0 -0.22084181833534108 0.0
0.0 -0.22084181833483932 0.0
-3.268583609964618e-22 0.0 0.0
0.0 -6.570109693000198e-09 0.0
0.0 -2.4236510328568127e-08 0.0
0.0 -8.203065970166135e-08 0.0
0.0 -2.7223728602561513e-07 0.0
0.0 -8.891540610095816e-07 0.0
0.0 -2.8533785822588635e-06 0.0
0.0 -8.974717892986831e-06 0.0
0.0 -2.758211205450873e-05 0.0
0.0 -8.25133278165224e-05 0.0
0.0 -0.00023912734557358524 0.0
0.0 -0.0006672489168990573 0.0
0.0 -0.0017785374130019627 0.0
0.0 -0.0044817542834259426 0.0
0.0 -0.010531697649460084 0.0
0.0 -0.022671373679200933 0.0
0.0 -0.04376201817842574 0.0
0.0 -0.07426948896661055 0.0
0.0 -0.11136865093158001 0.0
0.0 -0.1555892889709616 0.0
4.245009558185357e-14 -0.1814440551171137 0.0
0.0 -0.15558928897091834 0.0
0.0 -0.11136865093168126 0.0
0.0 -0.07426948896675853 0.0
0.0 -0.043762018178582586 0.0
0.0 -0.022671373679326035 0.0
0.0 -0.010531697649539791 0.0
0.0 -0.0044817542834692725 0.0
0.0 -0.0017785374130229348 0.0
0.0 -0.0006672489169083516 0.0
0.0 -0.00023912734557742616 0.0
0.0 -8.251332781802173e-05 0.0
0.0 -2.758211205505455e-05 0.0
0.0 -8.974717893132897e-06 0.0
0.0 -2.8533785822944105e-06 0.0
0.0 -8.891540610175795e-07 0.0
0.0 -2.72237286027147e-07 0.0
0.0 -8.203065970184833e-08 0.0
0.0 -2.423651032857882e-08 0.0
0.0 -6.570109693001485e-09 0.0
-1.4478089009944856e-21 -6.570109693000842e-09 0.0
-3.708292001987417e-21 -2.4236510328573487e-08 0.0
-2.7524807496528435e-21 -8.203065970175485e-08 0.0
-2.664883439015513e-21 -2.722372860263811e-07 0.0
4.962845413805232e-20 -8.891540610135804e-07 0.0
5.349748173368307e-19 -2.8533785822766394e-06 0.0
3.943805744006526e-18 -8.974717893059868e-06 0.0
3.2250224054010455e-18 -2.758211205478168e-05 0.0
1.221988071370763e-17 -8.251332781727325e-05 0.0
2.7491863701807952e-17 -0.00023912734557536005 0.0
5.468796751113965e-17 -0.0006672489169168294 0.0
9.166649591284373e-17 -0.0017785374119174832 0.0
1.0345566805784632e-16 -0.004481754365819486 0.0
8.017669963655211e-18 -0.010531692317670979 0.0
-4.959321636148552e-16 -0.022671644626146844 0.0
-1.8233139008759106e-15 -0.043753459378882045 0.0
-1.9764840244797504e-15 -0.07430247212390469 0.0
-4.492983276746237e-15 -0.11152182461604729 0.0
-4.053681002528704e-14 -0.15288497360650086 0.0
VECTORS velocity double
0.0 0.0 0.0
0.0 0.0 0.0
0.0 -13.075159154831894 0.0
0.0 -13.075159154840911 0.0
-1.1349183495495137e-19 0.0 0.0
0.0 -2.2923075763156697e-06 0.0
0.0 -8.395519705495146e-06 0.0
0.0 -2.815615166993505e-05 0.0
0.0 -9.245707230170919e-05 0.0
0.0 -0.00029831613504179884 0.0
0.0 -0.0009439006712174844 0.0
0.0 -0.0029201357986643095 0.0
0.0 -0.008800023175437946 0.0
0.0 -0.025710447914013442 0.0
0.0 -0.07238051008090117 0.0
0.0 -0.19476575916907612 0.0
0.0 -0.4955012763105945 0.0
0.0 -1.173954854802791 0.0
0.0 -2.5351696908223937 0.0
0.0 -4.838565873815858 0.0
0.0 -7.82794039029472 0.0
0.0 -10.297509293883563 0.0
0.0 -11.856386523659813 0.0
0.0 -14.266044279660008 0.0
-2.4147114831536e-13 -14.200533631083914 0.0
0.0 -14.266044279660477 0.0
0.0 -11.85638652366952 0.0
0.0 -10.297509293892672 0.0
0.0 -7.827940390311646 0.0
0.0 -4.838565873836757 0.0
0.0 -2.535169690839145 0.0
0.0 -1.1739548548132135 0.0
0.0 -0.4955012763161104 0.0
0.0 -0.1947657591716797 0.0
0.0 -0.07238051008202864 0.0
0.0 -0.02571044791446967 0.0
0.0 -0.008800023175608889 0.0
0.0 -0.0029201357987112208 0.0
0.0 -0.000943900671229149 0.0
0.0 -0.0002983161350444681 0.0
0.0 -9.245707230222836e-05 0.0
0.0 -2.815615166999964e-05 0.0
0.0 -8.395519705499017e-06 0.0
0.0 -2.2923075763161474e-06 0.0
-4.950808170967825e-19 -2.292307576315909e-06 0.0
-1.2359848064218133e-18 -8.395519705497086e-06 0.0
-8.341930406351806e-19 -2.815615166996735e-05 0.0
-5.716056018588259e-19 -9.24570723019688e-05 0.0
1.7538671269739595e-17 -0.0002983161350431334 0.0
1.7602719379478966e-16 -0.0009439006712233175 0.0
1.2168427015924015e-15 -0.002920135798687766 0.0
9.044830422612918e-16 -0.008800023175523426 0.0
3.3987131299334665e-15 -0.025710447914242086 0.0
7.049435371343429e-15 -0.07238051008140418 0.0
1.2225570324217763e-14 -0.19476575917588354 0.0
1.5204172768309287e-14 -0.4955012758498379 0.0
1.564754871942727e-15 -1.1739548901487151 0.0
-5.055801370185283e-14 -2.535167352954834 0.0
-2.333161505311091e-13 -4.838689682818534 0.0
-2.559431484784252e-13 -7.823583062132924 0.0
1.2321495606476424e-12 -10.346821864270334 0.0
8.357255887958033e-13 -11.79669332071803 0.0
-1.6959628557685936e-12 -13.385959736693309 0.0
VECTORS boundary_conditions double
1.0 1.0 0.0
1.0 1.0 0.0
1.0 0.0 0.0
1.0 0.0 0.0
0.0 1.0 0.0
1.0 0.0 0.0
1.0 0.0 0.0
1.0 0.0 0.0
1.0 0.0 0.0
1.0 0.0 0.0
1.0 0.0 0.0
1.0 0.0 0.0
1.0 0.0 0.0
1.0 0.0 0.0
1.0 0.0 0.0
1.0 0.0 0.0
1.0 0.0 0.0
1.0 0.0 0.0
1.0 0.0 0.0
1.0 0.0 0.0
1.0 0.0 0.0
1.0 0.0 0.0
1.0 0.0 0.0
1.0 0.0 0.0
0.0 0.0 0.0
1.0 0.0 0.0
1.0 0.0 0.0
1.0 0.0 0.0
1.0 0.0 0.0
1.0 0.0 0.0
1.0 0.0 0.0
1.0 0.0 0.0
1.0 0.0 0.0
1.0 0.0 0.0
1.0 0.0 0.0
1.0 0.0 0.0
1.0 0.0 0.0
1.0 0.0 0.0
1.0 0.0 0.0
1.0 0.0 0.0
1.0 0.0 0.0
1.0 0.0 0.0
1.0 0.0 0.0
1.0 0.0 0.0
0.0 0.0 0.0
0.0 0.0 0.0
0.0 0.0 0.0
0.0 0.0 0.0
0.0 0.0 0.0
0.0 0.0 0.0
0.0 0.0 0.0
0.0 0.0 0.0
0.0 0.0 0.0
0.0 0.0 0.0
0.0 0.0 0.0
0.0 0.0 0.0
0.0 0.0 0.0
0.0 0.0 0.0
0.0 0.0 0.0
0.0 0.0 0.0
0.0 0.0 0.0
0.0 0.0 0.0
0.0 0.0 0.0
CELL_DATA 40
SCALARS material_index double
LOOKUP_TABLE default
1.0
1.0
1.0
1.0
1.0
1.0
1.0
1.0
1.0
1.0
1.0
1.0
1.0
1.0
1.0
1.0
1.0
1.0
1.0
1.0
1.0
1.0
1.0
1.0
1.0
1.0
1.0
1.0
1.0
1.0
1.0
1.0
1.0
1.0
1.0
1.0
1.0
1.0
1.0
1.0
SCALARS material_prop_density double
LOOKUP_TABLE default
1500.0
1500.0
1500.0
1500.0
1500.0
1500.0
1500.0
1500.0
1500.0
1500.0
1500.0
1500.0
1500.0
1500.0
1500.0
1500.0
1500.0
1500.0
1500.0
1500.0
1500.0
1500.0
1500.0
1500.0
1500.0
1500.0
1500.0
1500.0
1500.0
1500.0
1500.0
1500.0
1500.0
1500.0
1500.0
1500.0
1500.0
1500.0
1500.0
1500.0
SCALARS material_prop_Young double
LOOKUP_TABLE default
30000000.0
30000000.0
30000000.0
30000000.0
30000000.0
30000000.0
30000000.0
30000000.0
30000000.0
30000000.0
30000000.0
30000000.0
30000000.0
30000000.0
30000000.0
30000000.0
30000000.0
30000000.0
30000000.0
30000000.0
30000000.0
30000000.0
30000000.0
30000000.0
30000000.0
30000000.0
30000000.0
30000000.0
30000000.0
30000000.0
30000000.0
30000000.0
30000000.0
30000000.0
30000000.0
30000000.0
30000000.0
30000000.0
30000000.0
30000000.0
SCALARS material_prop_poisson double
LOOKUP_TABLE default
0.2
0.2
0.2
0.2
0.2
0.2
0.2
0.2
0.2
0.2
0.2
0.2
0.2
0.2
0.2
0.2
0.2
0.2
0.2
0.2
0.2
0.2
0.2
0.2
0.2
0.2
0.2
0.2
0.2
0.2
0.2
0.2
0.2
0.2
0.2
0.2
0.2
0.2
0.2
0.2
