# vtk DataFile Version 2.0
data_85
ASCII
DATASET UNSTRUCTURED_GRID
POINTS 63 float
0.0 0.0 0.0
1.0 0.0 0.0
1.0 10.0 0.0
0.0 10.0 0.0
0.4999999999986921 0.0 0.0
1.0 0.499999999999551 0.0
1.0 0.9999999999991888 0.0
1.0 1.499999999998284 0.0
1.0 1.999999999996824 0.0
1.0 2.499999999995364 0.0
1.0 2.999999999993903 0.0
1.0 3.499999999992442 0.0
1.0 3.999999999991017 0.0
1.0 4.499999999991639 0.0
1.0 4.999999999992399 0.0
1.0 5.499999999993159 0.0
1.0 5.99999999999392 0.0
1.0 6.499999999994679 0.0
1.0 6.999999999995438 0.0
1.0 7.499999999996199 0.0
1.0 7.99999999999696 0.0
1.0 8.49999999999772 0.0
1.0 8.99999999999848 0.0
1.0 9.49999999999924 0.0
0.5000000000020595 10.0 0.0
0.0 9.5 0.0
0.0 8.999999999999998 0.0
0.0 8.499999999999998 0.0
0.0 7.999999999999996 0.0
0.0 7.499999999999995 0.0
0.0 6.999999999999995 0.0
0.0 6.499999999999996 0.0
0.0 5.999999999999996 0.0
0.0 5.499999999999996 0.0
0.0 4.999999999999996 0.0
0.0 4.499999999999997 0.0
0.0 3.999999999999996 0.0
0.0 3.499999999999997 0.0
0.0 2.999999999999998 0.0
0.0 2.499999999999998 0.0
0.0 1.999999999999998 0.0
0.0 1.5 0.0
0.0 0.9999999999999982 0.0
0.0 0.5 0.0
0.4999999999988605 0.4999999999997756 0.0
0.4999999999990288 0.9999999999995937 0.0
0.4999999999991972 1.499999999999142 0.0
0.4999999999993656 1.999999999998411 0.0
0.499999999999534 2.499999999997681 0.0
0.4999999999997023 2.999999999996951 0.0
0.4999999999998707 3.49999999999622 0.0
0.5000000000000391 3.999999999995507 0.0
0.5000000000002074 4.499999999995817 0.0
0.5000000000003758 4.999999999996198 0.0
0.5000000000005441 5.499999999996577 0.0
0.5000000000007125 5.999999999996958 0.0
0.500000000000881 6.499999999997339 0.0
0.5000000000010493 6.999999999997716 0.0
0.5000000000012177 7.499999999998098 0.0
0.500000000001386 7.999999999998479 0.0
0.5000000000015543 8.499999999998856 0.0
0.5000000000017226 8.99999999999924 0.0
0.5000000000018909 9.49999999999962 0.0
CELLS 40 200
4 0 4 44 43
4 43 44 45 42
4 42 45 46 41
4 41 46 47 40
4 40 47 48 39
4 39 48 49 38
4 38 49 50 37
4 37 50 51 36
4 36 51 52 35
4 35 52 53 34
4 34 53 54 33
4 33 54 55 32
4 32 55 56 31
4 31 56 57 30
4 30 57 58 29
4 29 58 59 28
4 28 59 60 27
4 27 60 61 26
4 26 61 62 25
4 25 62 24 3
4 4 1 5 44
4 44 5 6 45
4 45 6 7 46
4 46 7 8 47
4 47 8 9 48
4 48 9 10 49
4 49 10 11 50
4 50 11 12 51
4 51 12 13 52
4 52 13 14 53
4 53 14 15 54
4 54 15 16 55
4 55 16 17 56
4 56 17 18 57
4 57 18 19 58
4 58 19 20 59
4 59 20 21 60
4 60 21 22 61
4 61 22 23 62
4 62 23 2 24
CELL_TYPES 40
9
9
9
9
9
9
9
9
9
9
9
9
9
9
9
9
9
9
9
9
9
9
9
9
9
9
9
9
9
9
9
9
9
9
9
9
9
9
9
9
POINT_DATA 63
VECTORS displacement double
0.0 0.0 0.0
0.0 0.0 0.0
0.0 -1.6721230024646272 0.0
0.0 -1.6721230024641567 0.0
1.2111040179063657e-15 0.0 0.0
0.0 -0.08753913325393173 0.0
0.0 -0.17639225123984278 0.0
0.0 -0.26676246298457484 0.0
0.0 -0.3584672328698754 0.0
0.0 -0.4500876736771851 0.0
0.0 -0.5401699943427936 0.0
0.0 -0.6278521220955818 0.0
0.0 -0.7132261135315967 0.0
0.0 -0.7973742379033965 0.0
0.0 -0.8814592022939868 0.0
0.0 -0.9665733172430859 0.0
0.0 -1.0534294598463112 0.0
0.0 -1.1411446870066522 0.0
0.0 -1.2285438307295768 0.0
0.0 -1.3143375421690338 0.0
0.0 -1.3966159326287608 0.0
0.0 -1.4734710679041454 0.0
0.0 -1.54316737592956 0.0
0.0 -1.60463242475333 0.0
3.495624295857312e-14 -1.6359354187777129 0.0
0.0 -1.604632424753311 0.0
0.0 -1.5431673759297435 0.0
0.0 -1.4734710679044771 0.0
0.0 -1.3966159326292455 0.0
0.0 -1.3143375421696757 0.0
0.0 -1.228543830730369 0.0
0.0 -1.1411446870075812 0.0
0.0 -1.0534294598473741 0.0
0.0 -0.9665733172442619 0.0
0.0 -0.881459202295267 0.0
0.0 -0.797374237904798 0.0
0.0 -0.7132261135331155 0.0
0.0 -0.6278521220968877 0.0
0.0 -0.5401699943438784 0.0
0.0 -0.45008767367803065 0.0
0.0 -0.3584672328704617 0.0
0.0 -0.26676246298489026 0.0
0.0 -0.17639225123998992 0.0
0.0 -0.08753913325401419 0.0
-3.5435713886953365e-16 -0.08754079472683118 0.0
6.494462381282718e-16 -0.1762998989724123 0.0
-1.0234152743507007e-16 -0.266774052693697 0.0
1.895115555598734e-16 -0.35853556646488816 0.0
-1.5017598192049953e-15 -0.45014055692828087 0.0
-6.26332129518806e-16 -0.5402011533929261 0.0
1.8910478576653573e-15 -0.6277621934431092 0.0
-8.828020042308776e-16 -0.7131641018987586 0.0
-3.697165145398609e-16 -0.7973119376022452 0.0
-3.3938362818802135e-16 -0.8814499199833251 0.0
1.0588550331663048e-15 -0.9666231046790534 0.0
-1.0357811565481212e-15 -1.0534818489323197 0.0
-1.3869102247593654e-16 -1.141243986876881 0.0
8.454620304609635e-16 -1.2285982090532972 0.0
-8.227313929086238e-16 -1.3144218951882745 0.0
3.1843226748105414e-16 -1.3966422801200884 0.0
4.2791335421414246e-16 -1.4735196658714325 0.0
-4.418904700467853e-15 -1.5430788651884462 0.0
-3.9207384773274353e-14 -1.6028524950064338 0.0
VECTORS velocity double
0.0 0.0 0.0
0.0 0.0 0.0
0.0 7.759324026012141 0.0
0.0 7.75932402601379 0.0
3.4116615366626354e-13 0.0 0.0
0.0 0.23457031740631518 0.0
0.0 0.6568048961057724 0.0
0.0 0.7130532396364879 0.0
0.0 0.47058897449255 0.0
0.0 0.0751240193764362 0.0
0.0 -0.1835717385484923 0.0
0.0 -0.3673853336178823 0.0
0.0 -0.5242319696236333 0.0
0.0 -0.37999340241416846 0.0
0.0 0.05320253983085266 0.0
0.0 0.87327542355494 0.0
0.0 2.019265515732748 0.0
0.0 3.396546406496496 0.0
0.0 4.742068071601334 0.0
0.0 5.791353487486354 0.0
0.0 6.536085033426527 0.0
0.0 7.139379788372743 0.0
0.0 7.384455518732343 0.0
0.0 7.633810609025893 0.0
-8.912640827831278e-13 7.818185068187709 0.0
0.0 7.633810609027396 0.0
0.0 7.3844555187365994 0.0
0.0 7.139379788376408 0.0
0.0 6.536085033430561 0.0
0.0 5.791353487491756 0.0
0.0 4.7420680716135255 0.0
0.0 3.3965464065109003 0.0
0.0 2.019265515749275 0.0
0.0 0.8732754235678364 0.0
0.0 0.053202539838723695 0.0
0.0 -0.3799934024090845 0.0
0.0 -0.5242319696220914 0.0
0.0 -0.367385333622968 0.0
0.0 -0.18357173854969666 0.0
0.0 0.07512401937359137 0.0
0.0 0.4705889744902798 0.0
0.0 0.7130532396363236 0.0
0.0 0.6568048961065776 0.0
0.0 0.2345703174060927 0.0
-3.9889418670745477e-13 0.3841456238272287 0.0
5.664453525960554e-13 0.6163140756901568 0.0
-1.4274356755233668e-13 0.6076676795615867 0.0
-7.034415264358744e-13 0.4925981137805646 0.0
2.296106239535573e-13 0.08236973359068234 0.0
1.295619905722173e-13 -0.11820751136632524 0.0
5.429167902401275e-13 -0.3252185494086568 0.0
-1.1093972742380216e-12 -0.5514372471687796 0.0
1.204084587684007e-12 -0.39358389492506873 0.0
-3.2552009505510937e-13 -0.028229316355284695 0.0
-2.84101409332651e-13 0.8536512769014095 0.0
8.776227588627972e-14 1.9742659351742908 0.0
2.3486182662947928e-14 3.408028289587886 0.0
-1.354389044399969e-13 4.752184347572376 0.0
-7.87943243730563e-14 5.825963319023204 0.0
7.188217035530396e-13 6.5795308930884495 0.0
-2.4373317835244794e-14 7.180603632934281 0.0
-9.25956839888918e-13 7.440593941918227 0.0
-6.299467457739529e-13 7.674639011950855 0.0
VECTORS boundary_conditions double
1.0 1.0 0.0
1.0 1.0 0.0
1.0 0.0 0.0
1.0 0.0 0.0
0.0 1.0 0.0
1.0 0.0 0.0
1.0 0.0 0.0
1.0 0.0 0.0
1.0 0.0 0.0
1.0 0.0 0.0
1.0 0.0 0.0
1.0 0.0 0.0
1.0 0.0 0.0
1.0 0.0 0.0
1.0 0.0 0.0
1.0 0.0 0.0
1.0 0.0 0.0
1.0 0.0 0.0
1.0 0.0 0.0
1.0 0.0 0.0
1.0 0.0 0.0
1.0 0.0 0.0
1.0 0.0 0.0
1.0 0.0 0.0
0.0 0.0 0.0
1.0 0.0 0.0
1.0 0.0 0.0
1.0 0.0 0.0
1.0 0.0 0.0
1.0 0.0 0.0
1.0 0.0 0.0
1.0 0.0 0.0
1.0 0.0 0.0
1.0 0.0 0.0
1.0 0.0 0.0
1.0 0.0 0.0
1.0 0.0 0.0
1.0 0.0 0.0
1.0 0.0 0.0
1.0 0.0 0.0
1.0 0.0 0.0
1.0 0.0 0.0
1.0 0.0 0.0
1.0 0.0 0.0
0.0 0.0 0.0
0.0 0.0 0.0
0.0 0.0 0.0
0.0 0.0 0.0
0.0 0.0 0.0
0.0 0.0 0.0
0.0 0.0 0.0
0.0 0.0 0.0
0.0 0.0 0.0
0.0 0.0 0.0
0.0 0.0 0.0
0.0 0.0 0.0
0.0 0.0 0.0
0.0 0.0 0.0
0.0 0.0 0.0
0.0 0.0 0.0
0.0 0.0 0.0
0.0 0.0 0.0
0.0 0.0 0.0
CELL_DATA 40
SCALARS material_index double
LOOKUP_TABLE default
1.0
1.0
1.0
1.0
1.0
1.0
1.0
1.0
1.0
1.0
1.0
1.0
1.0
1.0
1.0
1.0
1.0
1.0
1.0
1.0
1.0
1.0
1.0
1.0
1.0
1.0
1.0
1.0
1.0
1.0
1.0
1.0
1.0
1.0
1.0
1.0
1.0
1.0
1.0
1.0
SCALARS material_prop_density double
LOOKUP_TABLE default
1500.0
1500.0
1500.0
1500.0
1500.0
1500.0
1500.0
1500.0
1500.0
1500.0
1500.0
1500.0
1500.0
1500.0
1500.0
1500.0
1500.0
1500.0
1500.0
1500.0
1500.0
1500.0
1500.0
1500.0
1500.0
1500.0
1500.0
1500.0
1500.0
1500.0
1500.0
1500.0
1500.0
1500.0
1500.0
1500.0
1500.0
1500.0
1500.0
1500.0
SCALARS material_prop_Young double
LOOKUP_TABLE default
30000000.0
30000000.0
30000000.0
30000000.0
30000000.0
30000000.0
30000000.0
30000000.0
30000000.0
30000000.0
30000000.0
30000000.0
30000000.0
30000000.0
30000000.0
30000000.0
30000000.0
30000000.0
30000000.0
30000000.0
30000000.0
30000000.0
30000000.0
30000000.0
30000000.0
30000000.0
30000000.0
30000000.0
30000000.0
30000000.0
30000000.0
30000000.0
30000000.0
30000000.0
30000000.0
30000000.0
30000000.0
30000000.0
30000000.0
30000000.0
SCALARS material_prop_poisson double
LOOKUP_TABLE default
0.2
0.2
0.2
0.2
0.2
0.2
0.2
0.2
0.2
0.2
0.2
0.2
0.2
0.2
0.2
0.2
0.2
0.2
0.2
0.2
0.2
0.2
0.2
0.2
0.2
0.2
0.2
0.2
0.2
0.2
0.2
0.2
0.2
0.2
0.2
0.2
0.2
0.2
0.2
0.2
