# vtk DataFile Version 2.0
data_98
ASCII
DATASET UNSTRUCTURED_GRID
POINTS 63 float
0.0 0.0 0.0
1.0 0.0 0.0
1.0 10.0 0.0
0.0 10.0 0.0
0.4999999999986921 0.0 0.0
1.0 0.499999999999551 0.0
1.0 0.9999999999991888 0.0
1.0 1.499999999998284 0.0
1.0 1.999999999996824 0.0
1.0 2.499999999995364 0.0
1.0 2.999999999993903 0.0
1.0 3.499999999992442 0.0
1.0 3.999999999991017 0.0
1.0 4.499999999991639 0.0
1.0 4.999999999992399 0.0
1.0 5.499999999993159 0.0
1.0 5.99999999999392 0.0
1.0 6.499999999994679 0.0
1.0 6.999999999995438 0.0
1.0 7.499999999996199 0.0
1.0 7.99999999999696 0.0
1.0 8.49999999999772 0.0
1.0 8.99999999999848 0.0
1.0 9.49999999999924 0.0
0.5000000000020595 10.0 0.0
0.0 9.5 0.0
0.0 8.999999999999998 0.0
0.0 8.499999999999998 0.0
0.0 7.999999999999996 0.0
0.0 7.499999999999995 0.0
0.0 6.999999999999995 0.0
0.0 6.499999999999996 0.0
0.0 5.999999999999996 0.0
0.0 5.499999999999996 0.0
0.0 4.999999999999996 0.0
0.0 4.499999999999997 0.0
0.0 3.999999999999996 0.0
0.0 3.499999999999997 0.0
0.0 2.999999999999998 0.0
0.0 2.499999999999998 0.0
0.0 1.999999999999998 0.0
0.0 1.5 0.0
0.0 0.9999999999999982 0.0
0.0 0.5 0.0
0.4999999999988605 0.4999999999997756 0.0
0.4999999999990288 0.9999999999995937 0.0
0.4999999999991972 1.499999999999142 0.0
0.4999999999993656 1.999999999998411 0.0
0.499999999999534 2.499999999997681 0.0
0.4999999999997023 2.999999999996951 0.0
0.4999999999998707 3.49999999999622 0.0
0.5000000000000391 3.999999999995507 0.0
0.5000000000002074 4.499999999995817 0.0
0.5000000000003758 4.999999999996198 0.0
0.5000000000005441 5.499999999996577 0.0
0.5000000000007125 5.999999999996958 0.0
0.500000000000881 6.499999999997339 0.0
0.5000000000010493 6.999999999997716 0.0
0.5000000000012177 7.499999999998098 0.0
0.500000000001386 7.999999999998479 0.0
0.5000000000015543 8.499999999998856 0.0
0.5000000000017226 8.99999999999924 0.0
0.5000000000018909 9.49999999999962 0.0
CELLS 40 200
4 0 4 44 43
4 43 44 45 42
4 42 45 46 41
4 41 46 47 40
4 40 47 48 39
4 39 48 49 38
4 38 49 50 37
4 37 50 51 36
4 36 51 52 35
4 35 52 53 34
4 34 53 54 33
4 33 54 55 32
4 32 55 56 31
4 31 56 57 30
4 30 57 58 29
4 29 58 59 28
4 28 59 60 27
4 27 60 61 26
4 26 61 62 25
4 25 62 24 3
4 4 1 5 44
4 44 5 6 45
4 45 6 7 46
4 46 7 8 47
4 47 8 9 48
4 48 9 10 49
4 49 10 11 50
4 50 11 12 51
4 51 12 13 52
4 52 13 14 53
4 53 14 15 54
4 54 15 16 55
4 55 16 17 56
4 56 17 18 57
4 57 18 19 58
4 58 19 20 59
4 59 20 21 60
4 60 21 22 61
4 61 22 23 62
4 62 23 2 24
CELL_TYPES 40
9
9
9
9
9
9
9
9
9
9
9
9
9
9
9
9
9
9
9
9
9
9
9
9
9
9
9
9
9
9
9
9
9
9
9
9
9
9
9
9
POINT_DATA 63
VECTORS displacement double
0.0 0.0 0.0
0.0 0.0 0.0
0.0 -0.7776214669304825 0.0
0.0 -0.7776214669300247 0.0
1.01728676769001e-15 0.0 0.0
0.0 -0.02757748658517496 0.0
0.0 -0.05504161542375981 0.0
0.0 -0.08197958878107663 0.0
0.0 -0.10910658443564422 0.0
0.0 -0.13711992749030624 0.0
0.0 -0.16675534281955845 0.0
0.0 -0.19828780128430498 0.0
0.0 -0.23217870396746604 0.0
0.0 -0.26898241715160714 0.0
0.0 -0.3091125020542521 0.0
0.0 -0.3529569384993739 0.0
0.0 -0.39976059790224955 0.0
0.0 -0.4482932264852972 0.0
0.0 -0.49706904835490096 0.0
0.0 -0.5443398420120131 0.0
0.0 -0.5891406238357566 0.0
0.0 -0.6318229170841843 0.0
0.0 -0.6734763995583734 0.0
0.0 -0.7165098559423649 0.0
3.764584190339019e-14 -0.7413867943083308 0.0
0.0 -0.7165098559423319 0.0
0.0 -0.6734763995584874 0.0
0.0 -0.6318229170843762 0.0
0.0 -0.5891406238360265 0.0
0.0 -0.5443398420123657 0.0
0.0 -0.49706904835534144 0.0
0.0 -0.44829322648581443 0.0
0.0 -0.3997605979028296 0.0
0.0 -0.3529569384999983 0.0
0.0 -0.30911250205489044 0.0
0.0 -0.26898241715224774 0.0
0.0 -0.23217870396809984 0.0
0.0 -0.19828780128479495 0.0
0.0 -0.16675534281992907 0.0
0.0 -0.13711992749057464 0.0
0.0 -0.10910658443582175 0.0
0.0 -0.08197958878116883 0.0
0.0 -0.05504161542380467 0.0
0.0 -0.02757748658520278 0.0
5.250076363081211e-16 -0.027687106190276388 0.0
-1.6051123785772919e-15 -0.05502199529922871 0.0
1.4386723980064145e-15 -0.08199114555739714 0.0
6.947263954658597e-16 -0.10912551430882389 0.0
-1.6436613060797166e-15 -0.13707552227417552 0.0
-4.511893224979138e-16 -0.16669698182666406 0.0
7.397568906037895e-16 -0.19824690627443572 0.0
-3.0004599841683904e-17 -0.23221125150772837 0.0
-1.0117673011225317e-15 -0.2690083176077198 0.0
9.654938923071077e-16 -0.30917728520480625 0.0
-2.539049593202723e-16 -0.35300369430688366 0.0
2.7976838631795884e-16 -0.3998028047331342 0.0
-3.5339539380887676e-16 -0.44831553783892736 0.0
-3.892322696598919e-16 -0.49706805734406156 0.0
7.676838142903839e-16 -0.5443329372736974 0.0
-1.1327787197035e-16 -0.5891073430797393 0.0
3.0686048032829673e-16 -0.6317934218680965 0.0
-5.391334014724353e-15 -0.6733365782246546 0.0
-3.7785112956842775e-14 -0.7146640645440943 0.0
VECTORS velocity double
0.0 0.0 0.0
0.0 0.0 0.0
0.0 13.698530549888893 0.0
0.0 13.69853054988885 0.0
8.497557373020008e-13 0.0 0.0
0.0 2.8857587163746308 0.0
0.0 5.74855937186819 0.0
0.0 8.31888447134243 0.0
0.0 10.48711921237618 0.0
0.0 12.196925213478561 0.0
0.0 13.241869324970214 0.0
0.0 13.567599469689627 0.0
0.0 13.389158648006251 0.0
0.0 13.035262645367276 0.0
0.0 12.578177898476998 0.0
0.0 12.23478290277497 0.0
0.0 12.095460401387694 0.0
0.0 12.212707916405266 0.0
0.0 12.406057396798584 0.0
0.0 12.670407032904322 0.0
0.0 12.965720661927012 0.0
0.0 13.198649102746366 0.0
0.0 13.493653081283435 0.0
0.0 13.683203625343655 0.0
-1.1274618415755873e-12 13.70864784513147 0.0
0.0 13.683203625342497 0.0
0.0 13.49365308128384 0.0
0.0 13.198649102747543 0.0
0.0 12.965720661928435 0.0
0.0 12.670407032906295 0.0
0.0 12.406057396800273 0.0
0.0 12.212707916407169 0.0
0.0 12.095460401388554 0.0
0.0 12.234782902771059 0.0
0.0 12.578177898471592 0.0
0.0 13.035262645359214 0.0
0.0 13.3891586480017 0.0
0.0 13.567599469689545 0.0
0.0 13.241869324979527 0.0
0.0 12.196925213492687 0.0
0.0 10.48711921238658 0.0
0.0 8.318884471349897 0.0
0.0 5.74855937187351 0.0
0.0 2.8857587163769534 0.0
-4.62198915551167e-14 2.8225691906639367 0.0
-5.147697022316396e-13 5.691210918513351 0.0
3.5848296734744055e-13 8.382187311471952 0.0
1.9434068680138938e-13 10.562111006758958 0.0
-8.219187955501016e-13 12.167370253835962 0.0
5.203202111404917e-13 13.242934356292228 0.0
-1.95893672179296e-13 13.533944922320686 0.0
-2.6334650696328514e-13 13.351029730768971 0.0
5.292776885741577e-13 13.01664863187541 0.0
-3.529417208271019e-13 12.561602184253346 0.0
4.1329466900174166e-13 12.26297279303567 0.0
-5.422431646803515e-13 12.104568928967982 0.0
1.5947928160338377e-13 12.263166166279401 0.0
-4.2266402558430853e-13 12.42532530431014 0.0
8.285746241132841e-13 12.719876679230984 0.0
5.521606969772904e-13 12.982674744402132 0.0
3.6438388082791587e-13 13.238878116250055 0.0
-3.4368359526050173e-14 13.505816811031341 0.0
-5.221759558151106e-13 13.716696856547522 0.0
VECTORS boundary_conditions double
1.0 1.0 0.0
1.0 1.0 0.0
1.0 0.0 0.0
1.0 0.0 0.0
0.0 1.0 0.0
1.0 0.0 0.0
1.0 0.0 0.0
1.0 0.0 0.0
1.0 0.0 0.0
1.0 0.0 0.0
1.0 0.0 0.0
1.0 0.0 0.0
1.0 0.0 0.0
1.0 0.0 0.0
1.0 0.0 0.0
1.0 0.0 0.0
1.0 0.0 0.0
1.0 0.0 0.0
1.0 0.0 0.0
1.0 0.0 0.0
1.0 0.0 0.0
1.0 0.0 0.0
1.0 0.0 0.0
1.0 0.0 0.0
0.0 0.0 0.0
1.0 0.0 0.0
1.0 0.0 0.0
1.0 0.0 0.0
1.0 0.0 0.0
1.0 0.0 0.0
1.0 0.0 0.0
1.0 0.0 0.0
1.0 0.0 0.0
1.0 0.0 0.0
1.0 0.0 0.0
1.0 0.0 0.0
1.0 0.0 0.0
1.0 0.0 0.0
1.0 0.0 0.0
1.0 0.0 0.0
1.0 0.0 0.0
1.0 0.0 0.0
1.0 0.0 0.0
1.0 0.0 0.0
0.0 0.0 0.0
0.0 0.0 0.0
0.0 0.0 0.0
0.0 0.0 0.0
0.0 0.0 0.0
0.0 0.0 0.0
0.0 0.0 0.0
0.0 0.0 0.0
0.0 0.0 0.0
0.0 0.0 0.0
0.0 0.0 0.0
0.0 0.0 0.0
0.0 0.0 0.0
0.0 0.0 0.0
0.0 0.0 0.0
0.0 0.0 0.0
0.0 0.0 0.0
0.0 0.0 0.0
0.0 0.0 0.0
CELL_DATA 40
SCALARS material_index double
LOOKUP_TABLE default
1.0
1.0
1.0
1.0
1.0
1.0
1.0
1.0
1.0
1.0
1.0
1.0
1.0
1.0
1.0
1.0
1.0
1.0
1.0
1.0
1.0
1.0
1.0
1.0
1.0
1.0
1.0
1.0
1.0
1.0
1.0
1.0
1.0
1.0
1.0
1.0
1.0
1.0
1.0
1.0
SCALARS material_prop_density double
LOOKUP_TABLE default
1500.0
1500.0
1500.0
1500.0
1500.0
1500.0
1500.0
1500.0
1500.0
1500.0
1500.0
1500.0
1500.0
1500.0
1500.0
1500.0
1500.0
1500.0
1500.0
1500.0
1500.0
1500.0
1500.0
1500.0
1500.0
1500.0
1500.0
1500.0
1500.0
1500.0
1500.0
1500.0
1500.0
1500.0
1500.0
1500.0
1500.0
1500.0
1500.0
1500.0
SCALARS material_prop_Young double
LOOKUP_TABLE default
30000000.0
30000000.0
30000000.0
30000000.0
30000000.0
30000000.0
30000000.0
30000000.0
30000000.0
30000000.0
30000000.0
30000000.0
30000000.0
30000000.0
30000000.0
30000000.0
30000000.0
30000000.0
30000000.0
30000000.0
30000000.0
30000000.0
30000000.0
30000000.0
30000000.0
30000000.0
30000000.0
30000000.0
30000000.0
30000000.0
30000000.0
30000000.0
30000000.0
30000000.0
30000000.0
30000000.0
30000000.0
30000000.0
30000000.0
30000000.0
SCALARS material_prop_poisson double
LOOKUP_TABLE default
0.2
0.2
0.2
0.2
0.2
0.2
0.2
0.2
0.2
0.2
0.2
0.2
0.2
0.2
0.2
0.2
0.2
0.2
0.2
0.2
0.2
0.2
0.2
0.2
0.2
0.2
0.2
0.2
0.2
0.2
0.2
0.2
0.2
0.2
0.2
0.2
0.2
0.2
0.2
0.2
