# vtk DataFile Version 2.0
data_22
ASCII
DATASET UNSTRUCTURED_GRID
POINTS 63 float
0.0 0.0 0.0
1.0 0.0 0.0
1.0 10.0 0.0
0.0 10.0 0.0
0.4999999999986921 0.0 0.0
1.0 0.499999999999551 0.0
1.0 0.9999999999991888 0.0
1.0 1.499999999998284 0.0
1.0 1.999999999996824 0.0
1.0 2.499999999995364 0.0
1.0 2.999999999993903 0.0
1.0 3.499999999992442 0.0
1.0 3.999999999991017 0.0
1.0 4.499999999991639 0.0
1.0 4.999999999992399 0.0
1.0 5.499999999993159 0.0
1.0 5.99999999999392 0.0
1.0 6.499999999994679 0.0
1.0 6.999999999995438 0.0
1.0 7.499999999996199 0.0
1.0 7.99999999999696 0.0
1.0 8.49999999999772 0.0
1.0 8.99999999999848 0.0
1.0 9.49999999999924 0.0
0.5000000000020595 10.0 0.0
0.0 9.5 0.0
0.0 8.999999999999998 0.0
0.0 8.499999999999998 0.0
0.0 7.999999999999996 0.0
0.0 7.499999999999995 0.0
0.0 6.999999999999995 0.0
0.0 6.499999999999996 0.0
0.0 5.999999999999996 0.0
0.0 5.499999999999996 0.0
0.0 4.999999999999996 0.0
0.0 4.499999999999997 0.0
0.0 3.999999999999996 0.0
0.0 3.499999999999997 0.0
0.0 2.999999999999998 0.0
0.0 2.499999999999998 0.0
0.0 1.999999999999998 0.0
0.0 1.5 0.0
0.0 0.9999999999999982 0.0
0.0 0.5 0.0
0.4999999999988605 0.4999999999997756 0.0
0.4999999999990288 0.9999999999995937 0.0
0.4999999999991972 1.499999999999142 0.0
0.4999999999993656 1.999999999998411 0.0
0.499999999999534 2.499999999997681 0.0
0.4999999999997023 2.999999999996951 0.0
0.4999999999998707 3.49999999999622 0.0
0.5000000000000391 3.999999999995507 0.0
0.5000000000002074 4.499999999995817 0.0
0.5000000000003758 4.999999999996198 0.0
0.5000000000005441 5.499999999996577 0.0
0.5000000000007125 5.999999999996958 0.0
0.500000000000881 6.499999999997339 0.0
0.5000000000010493 6.999999999997716 0.0
0.5000000000012177 7.499999999998098 0.0
0.500000000001386 7.999999999998479 0.0
0.5000000000015543 8.499999999998856 0.0
0.5000000000017226 8.99999999999924 0.0
0.5000000000018909 9.49999999999962 0.0
CELLS 40 200
4 0 4 44 43
4 43 44 45 42
4 42 45 46 41
4 41 46 47 40
4 40 47 48 39
4 39 48 49 38
4 38 49 50 37
4 37 50 51 36
4 36 51 52 35
4 35 52 53 34
4 34 53 54 33
4 33 54 55 32
4 32 55 56 31
4 31 56 57 30
4 30 57 58 29
4 29 58 59 28
4 28 59 60 27
4 27 60 61 26
4 26 61 62 25
4 25 62 24 3
4 4 1 5 44
4 44 5 6 45
4 45 6 7 46
4 46 7 8 47
4 47 8 9 48
4 48 9 10 49
4 49 10 11 50
4 50 11 12 51
4 51 12 13 52
4 52 13 14 53
4 53 14 15 54
4 54 15 16 55
4 55 16 17 56
4 56 17 18 57
4 57 18 19 58
4 58 19 20 59
4 59 20 21 60
4 60 21 22 61
4 61 22 23 62
4 62 23 2 24
CELL_TYPES 40
9
9
9
9
9
9
9
9
9
9
9
9
9
9
9
9
9
9
9
9
9
9
9
9
9
9
9
9
9
9
9
9
9
9
9
9
9
9
9
9
POINT_DATA 63
VECTORS displacement double
0.0 0.0 0.0
0.0 0.0 0.0
0.0 -1.3566548813791448 0.0
0.0 -1.3566548813786932 0.0
6.176552253692628e-17 0.0 0.0
0.0 -0.08781046421149383 0.0
0.0 -0.17696495583951413 0.0
0.0 -0.2685564804642761 0.0
0.0 -0.36261137076584116 0.0
0.0 -0.45713868342604586 0.0
0.0 -0.5488348633908411 0.0
0.0 -0.6354407415638517 0.0
0.0 -0.7159575347183473 0.0
0.0 -0.788679813719517 0.0
0.0 -0.8531045114003267 0.0
0.0 -0.9119575182854365 0.0
0.0 -0.9663940843357249 0.0
0.0 -1.0164842723680265 0.0
0.0 -1.0649980416147005 0.0
0.0 -1.1122394456105753 0.0
0.0 -1.1581858450890206 0.0
0.0 -1.2033932428863936 0.0
0.0 -1.2484792289736701 0.0
0.0 -1.2946560498666742 0.0
3.5816392268925376e-14 -1.3210104085748096 0.0
0.0 -1.2946560498666484 0.0
0.0 -1.248479228973803 0.0
0.0 -1.2033932428866074 0.0
0.0 -1.1581858450893026 0.0
0.0 -1.1122394456109275 0.0
0.0 -1.064998041615149 0.0
0.0 -1.0164842723685468 0.0
0.0 -0.9663940843363528 0.0
0.0 -0.9119575182862175 0.0
0.0 -0.853104511401253 0.0
0.0 -0.7886798137206528 0.0
0.0 -0.7159575347197321 0.0
0.0 -0.635440741565121 0.0
0.0 -0.5488348633919298 0.0
0.0 -0.45713868342691405 0.0
0.0 -0.36261137076644556 0.0
0.0 -0.26855648046459574 0.0
0.0 -0.17696495583965924 0.0
0.0 -0.08781046421157258 0.0
-1.0110142271006061e-16 -0.08781046421141182 0.0
1.1968747406984066e-16 -0.17696495584116642 0.0
5.310929665423802e-16 -0.2685564804493565 0.0
-5.717453420306659e-16 -0.36261137085662004 0.0
-1.4337226162385452e-15 -0.457138683306553 0.0
8.547731956237102e-16 -0.5488348601498634 0.0
1.04192297665374e-15 -0.6354407696433834 0.0
-1.4975629165427124e-15 -0.7159574772931415 0.0
-1.458768280475414e-16 -0.7886793343151194 0.0
3.3033638024022588e-15 -0.853107471320522 0.0
-1.783797794366516e-15 -0.9119574456602629 0.0
-1.679282030720041e-15 -0.9663550406906211 0.0
3.451272751612729e-15 -1.0165428854364864 0.0
-7.304789576825423e-16 -1.0652269609601528 0.0
3.6033029817247106e-16 -1.1118099897383098 0.0
5.370822179825287e-16 -1.1575628172019061 0.0
-3.58863089335956e-15 -1.2040403853987007 0.0
-5.561229410576076e-15 -1.2488571631211522 0.0
-3.688003089184086e-14 -1.2935874246590229 0.0
VECTORS velocity double
0.0 0.0 0.0
0.0 0.0 0.0
0.0 -13.538866990108783 0.0
0.0 -13.538866990105202 0.0
-1.7893910516394534e-13 0.0 0.0
0.0 -0.1709122460752852 0.0
0.0 0.10016778971753082 0.0
0.0 0.6972248006790425 0.0
0.0 1.171960579080194 0.0
0.0 1.1841974833321602 0.0
0.0 0.3366683875046075 0.0
0.0 -1.7109549745536867 0.0
0.0 -4.2639261067976655 0.0
0.0 -6.2645605438970975 0.0
0.0 -8.20946412245631 0.0
0.0 -10.262367115055618 0.0
0.0 -11.192423953518928 0.0
0.0 -11.930193230776242 0.0
0.0 -12.869268819777904 0.0
0.0 -12.97008641535074 0.0
0.0 -13.002820623493538 0.0
0.0 -12.920597975579982 0.0
0.0 -13.417429818658357 0.0
0.0 -13.226176923586525 0.0
2.670178251632001e-14 -13.17622701497491 0.0
0.0 -13.226176923582777 0.0
0.0 -13.417429818655759 0.0
0.0 -12.920597975579645 0.0
0.0 -13.002820623498113 0.0
0.0 -12.970086415347824 0.0
0.0 -12.869268819780604 0.0
0.0 -11.930193230791906 0.0
0.0 -11.192423953522459 0.0
0.0 -10.26236711507823 0.0
0.0 -8.209464122493472 0.0
0.0 -6.264560543925377 0.0
0.0 -4.263926106837722 0.0
0.0 -1.7109549745931485 0.0
0.0 0.3366683874869256 0.0
0.0 1.1841974833307853 0.0
0.0 1.1719605790822838 0.0
0.0 0.697224800680516 0.0
0.0 0.10016778971864104 0.0
0.0 -0.17091224607480382 0.0
-6.688829450083224e-14 -0.17091224599801969 0.0
2.0584620025235083e-13 0.10016778860139786 0.0
2.1190829057609514e-13 0.6972248132250289 0.0
-4.0904524537163245e-13 1.171960477511691 0.0
5.2758684971245475e-14 1.184197967921949 0.0
7.081366420592533e-13 0.33666846794542415 0.0
-1.1055246778578347e-12 -1.7109746337819 0.0
-5.584730011977497e-13 -4.263800277344858 0.0
1.988868988384259e-12 -6.264705483275039 0.0
-4.79854789038279e-14 -8.211537883004969 0.0
-2.0180621385684395e-12 -10.253017755262057 0.0
1.832787451943655e-12 -11.188932136863919 0.0
1.7796978614331007e-14 -12.030761328043079 0.0
-1.2977530322615481e-12 -12.75632967330368 0.0
1.171571073812552e-12 -12.567781199441495 0.0
-2.136021593916667e-12 -13.572959521447112 0.0
7.999742063579437e-13 -13.416774909254995 0.0
7.866498340474477e-13 -13.296375599624822 0.0
-7.642647756332571e-13 -13.415762711012615 0.0
VECTORS boundary_conditions double
1.0 1.0 0.0
1.0 1.0 0.0
1.0 0.0 0.0
1.0 0.0 0.0
0.0 1.0 0.0
1.0 0.0 0.0
1.0 0.0 0.0
1.0 0.0 0.0
1.0 0.0 0.0
1.0 0.0 0.0
1.0 0.0 0.0
1.0 0.0 0.0
1.0 0.0 0.0
1.0 0.0 0.0
1.0 0.0 0.0
1.0 0.0 0.0
1.0 0.0 0.0
1.0 0.0 0.0
1.0 0.0 0.0
1.0 0.0 0.0
1.0 0.0 0.0
1.0 0.0 0.0
1.0 0.0 0.0
1.0 0.0 0.0
0.0 0.0 0.0
1.0 0.0 0.0
1.0 0.0 0.0
1.0 0.0 0.0
1.0 0.0 0.0
1.0 0.0 0.0
1.0 0.0 0.0
1.0 0.0 0.0
1.0 0.0 0.0
1.0 0.0 0.0
1.0 0.0 0.0
1.0 0.0 0.0
1.0 0.0 0.0
1.0 0.0 0.0
1.0 0.0 0.0
1.0 0.0 0.0
1.0 0.0 0.0
1.0 0.0 0.0
1.0 0.0 0.0
1.0 0.0 0.0
0.0 0.0 0.0
0.0 0.0 0.0
0.0 0.0 0.0
0.0 0.0 0.0
0.0 0.0 0.0
0.0 0.0 0.0
0.0 0.0 0.0
0.0 0.0 0.0
0.0 0.0 0.0
0.0 0.0 0.0
0.0 0.0 0.0
0.0 0.0 0.0
0.0 0.0 0.0
0.0 0.0 0.0
0.0 0.0 0.0
0.0 0.0 0.0
0.0 0.0 0.0
0.0 0.0 0.0
0.0 0.0 0.0
CELL_DATA 40
SCALARS material_index double
LOOKUP_TABLE default
1.0
1.0
1.0
1.0
1.0
1.0
1.0
1.0
1.0
1.0
1.0
1.0
1.0
1.0
1.0
1.0
1.0
1.0
1.0
1.0
1.0
1.0
1.0
1.0
1.0
1.0
1.0
1.0
1.0
1.0
1.0
1.0
1.0
1.0
1.0
1.0
1.0
1.0
1.0
1.0
SCALARS material_prop_density double
LOOKUP_TABLE default
1500.0
1500.0
1500.0
1500.0
1500.0
1500.0
1500.0
1500.0
1500.0
1500.0
1500.0
1500.0
1500.0
1500.0
1500.0
1500.0
1500.0
1500.0
1500.0
1500.0
1500.0
1500.0
1500.0
1500.0
1500.0
1500.0
1500.0
1500.0
1500.0
1500.0
1500.0
1500.0
1500.0
1500.0
1500.0
1500.0
1500.0
1500.0
1500.0
1500.0
SCALARS material_prop_Young double
LOOKUP_TABLE default
30000000.0
30000000.0
30000000.0
30000000.0
30000000.0
30000000.0
30000000.0
30000000.0
30000000.0
30000000.0
30000000.0
30000000.0
30000000.0
30000000.0
30000000.0
30000000.0
30000000.0
30000000.0
30000000.0
30000000.0
30000000.0
30000000.0
30000000.0
30000000.0
30000000.0
30000000.0
30000000.0
30000000.0
30000000.0
30000000.0
30000000.0
30000000.0
30000000.0
30000000.0
30000000.0
30000000.0
30000000.0
30000000.0
30000000.0
30000000.0
SCALARS material_prop_poisson double
LOOKUP_TABLE default
0.2
0.2
0.2
0.2
0.2
0.2
0.2
0.2
0.2
0.2
0.2
0.2
0.2
0.2
0.2
0.2
0.2
0.2
0.2
0.2
0.2
0.2
0.2
0.2
0.2
0.2
0.2
0.2
0.2
0.2
0.2
0.2
0.2
0.2
0.2
0.2
0.2
0.2
0.2
0.2
