# vtk DataFile Version 2.0
data_76
ASCII
DATASET UNSTRUCTURED_GRID
POINTS 63 float
0.0 0.0 0.0
1.0 0.0 0.0
1.0 10.0 0.0
0.0 10.0 0.0
0.4999999999986921 0.0 0.0
1.0 0.499999999999551 0.0
1.0 0.9999999999991888 0.0
1.0 1.499999999998284 0.0
1.0 1.999999999996824 0.0
1.0 2.499999999995364 0.0
1.0 2.999999999993903 0.0
1.0 3.499999999992442 0.0
1.0 3.999999999991017 0.0
1.0 4.499999999991639 0.0
1.0 4.999999999992399 0.0
1.0 5.499999999993159 0.0
1.0 5.99999999999392 0.0
1.0 6.499999999994679 0.0
1.0 6.999999999995438 0.0
1.0 7.499999999996199 0.0
1.0 7.99999999999696 0.0
1.0 8.49999999999772 0.0
1.0 8.99999999999848 0.0
1.0 9.49999999999924 0.0
0.5000000000020595 10.0 0.0
0.0 9.5 0.0
0.0 8.999999999999998 0.0
0.0 8.499999999999998 0.0
0.0 7.999999999999996 0.0
0.0 7.499999999999995 0.0
0.0 6.999999999999995 0.0
0.0 6.499999999999996 0.0
0.0 5.999999999999996 0.0
0.0 5.499999999999996 0.0
0.0 4.999999999999996 0.0
0.0 4.499999999999997 0.0
0.0 3.999999999999996 0.0
0.0 3.499999999999997 0.0
0.0 2.999999999999998 0.0
0.0 2.499999999999998 0.0
0.0 1.999999999999998 0.0
0.0 1.5 0.0
0.0 0.9999999999999982 0.0
0.0 0.5 0.0
0.4999999999988605 0.4999999999997756 0.0
0.4999999999990288 0.9999999999995937 0.0
0.4999999999991972 1.499999999999142 0.0
0.4999999999993656 1.999999999998411 0.0
0.499999999999534 2.499999999997681 0.0
0.4999999999997023 2.999999999996951 0.0
0.4999999999998707 3.49999999999622 0.0
0.5000000000000391 3.999999999995507 0.0
0.5000000000002074 4.499999999995817 0.0
0.5000000000003758 4.999999999996198 0.0
0.5000000000005441 5.499999999996577 0.0
0.5000000000007125 5.999999999996958 0.0
0.500000000000881 6.499999999997339 0.0
0.5000000000010493 6.999999999997716 0.0
0.5000000000012177 7.499999999998098 0.0
0.500000000001386 7.999999999998479 0.0
0.5000000000015543 8.499999999998856 0.0
0.5000000000017226 8.99999999999924 0.0
0.5000000000018909 9.49999999999962 0.0
CELLS 40 200
4 0 4 44 43
4 43 44 45 42
4 42 45 46 41
4 41 46 47 40
4 40 47 48 39
4 39 48 49 38
4 38 49 50 37
4 37 50 51 36
4 36 51 52 35
4 35 52 53 34
4 34 53 54 33
4 33 54 55 32
4 32 55 56 31
4 31 56 57 30
4 30 57 58 29
4 29 58 59 28
4 28 59 60 27
4 27 60 61 26
4 26 61 62 25
4 25 62 24 3
4 4 1 5 44
4 44 5 6 45
4 45 6 7 46
4 46 7 8 47
4 47 8 9 48
4 48 9 10 49
4 49 10 11 50
4 50 11 12 51
4 51 12 13 52
4 52 13 14 53
4 53 14 15 54
4 54 15 16 55
4 55 16 17 56
4 56 17 18 57
4 57 18 19 58
4 58 19 20 59
4 59 20 21 60
4 60 21 22 61
4 61 22 23 62
4 62 23 2 24
CELL_TYPES 40
9
9
9
9
9
9
9
9
9
9
9
9
9
9
9
9
9
9
9
9
9
9
9
9
9
9
9
9
9
9
9
9
9
9
9
9
9
9
9
9
POINT_DATA 63
VECTORS displacement double
0.0 0.0 0.0
0.0 0.0 0.0
0.0 -1.3744980121341321 0.0
0.0 -1.3744980121336663 0.0
1.5051602995972473e-16 0.0 0.0
0.0 -0.09872463495568937 0.0
0.0 -0.1960694216756216 0.0
0.0 -0.2907096862158198 0.0
0.0 -0.38188019211976326 0.0
0.0 -0.4693576253456917 0.0
0.0 -0.5533639675968515 0.0
0.0 -0.6338499053627897 0.0
0.0 -0.7105389016697383 0.0
0.0 -0.7828253312387202 0.0
0.0 -0.849807817699726 0.0
0.0 -0.9118347901251288 0.0
0.0 -0.9690687257240762 0.0
0.0 -1.0222683217435518 0.0
0.0 -1.072815058856111 0.0
0.0 -1.1219591077188507 0.0
0.0 -1.1700334534876666 0.0
0.0 -1.2175516773921566 0.0
0.0 -1.264664734247422 0.0
0.0 -1.3118617485228268 0.0
3.6282961899581485e-14 -1.3382772558807852 0.0
0.0 -1.3118617485227912 0.0
0.0 -1.2646647342475406 0.0
0.0 -1.2175516773923691 0.0
0.0 -1.1700334534879546 0.0
0.0 -1.1219591077192164 0.0
0.0 -1.0728150588565641 0.0
0.0 -1.0222683217441006 0.0
0.0 -0.9690687257247425 0.0
0.0 -0.9118347901259425 0.0
0.0 -0.8498078177007038 0.0
0.0 -0.7828253312398844 0.0
0.0 -0.7105389016710776 0.0
0.0 -0.633849905363978 0.0
0.0 -0.5533639675978578 0.0
0.0 -0.46935762534648784 0.0
0.0 -0.3818801921203333 0.0
0.0 -0.2907096862161436 0.0
0.0 -0.19606942167578054 0.0
0.0 -0.09872463495577806 0.0
4.74540618183811e-17 -0.09881821713564312 0.0
5.854351099349309e-16 -0.19603412730416617 0.0
1.801222380412485e-16 -0.29057165255803075 0.0
-5.141475858981074e-16 -0.3819635164241265 0.0
-1.103184006723762e-15 -0.4694923553826073 0.0
6.991015595345127e-16 -0.5533332719293002 0.0
-1.0387365783707427e-15 -0.6338058485702058 0.0
1.2615267311214656e-15 -0.7104139632553791 0.0
2.3460036740163155e-16 -0.7827769428401251 0.0
-5.64170884485798e-16 -0.8498473006197304 0.0
-4.651089034587247e-16 -0.9118932580782005 0.0
8.920346147184857e-16 -0.9692018605471672 0.0
3.5739609638029804e-16 -1.0223298211972633 0.0
-2.350757059056574e-15 -1.072907187898229 0.0
7.838524036974323e-16 -1.121961292237992 0.0
1.5132988894046439e-15 -1.1700535243276284 0.0
-2.776658242432703e-15 -1.2175005839177604 0.0
-7.0686442364185065e-15 -1.2645484885601614 0.0
-3.836557592254309e-14 -1.3099801248917642 0.0
VECTORS velocity double
0.0 0.0 0.0
0.0 0.0 0.0
0.0 -12.594088176762867 0.0
0.0 -12.594088176763716 0.0
9.611855494623485e-13 0.0 0.0
0.0 1.3971598455687828 0.0
0.0 2.2022402654843964 0.0
0.0 2.59024477835845 0.0
0.0 2.0464165856004275 0.0
0.0 0.775142874998382 0.0
0.0 -1.0682086130258241 0.0
0.0 -3.2683661856441493 0.0
0.0 -5.294851494659648 0.0
0.0 -6.973017231090029 0.0
0.0 -8.340707778122834 0.0
0.0 -9.250259442279514 0.0
0.0 -9.912682646460812 0.0
0.0 -10.521313704245697 0.0
0.0 -11.19171155499583 0.0
0.0 -12.126512742168842 0.0
0.0 -12.668564137120782 0.0
0.0 -12.99030756960445 0.0
0.0 -13.012192913400119 0.0
0.0 -12.858821227120998 0.0
1.7447274852528154e-12 -12.567697446654279 0.0
0.0 -12.858821227117616 0.0
0.0 -13.01219291339798 0.0
0.0 -12.990307569605006 0.0
0.0 -12.66856413712304 0.0
0.0 -12.126512742172823 0.0
0.0 -11.191711555004558 0.0
0.0 -10.521313704251753 0.0
0.0 -9.912682646469566 0.0
0.0 -9.250259442287927 0.0
0.0 -8.340707778141097 0.0
0.0 -6.973017231115897 0.0
0.0 -5.294851494692409 0.0
0.0 -3.2683661856754345 0.0
0.0 -1.0682086130523754 0.0
0.0 0.7751428749853728 0.0
0.0 2.046416585594904 0.0
0.0 2.5902447783578593 0.0
0.0 2.2022402654866 0.0
0.0 1.3971598455687664 0.0
-6.90021699547559e-13 1.3880878071522906 0.0
4.67067654692262e-13 2.2866309348400757 0.0
-4.4036988718885706e-13 2.5475480180389907 0.0
4.999524970377324e-14 1.9242949912830465 0.0
1.0279275841832189e-13 0.8505183695491683 0.0
-2.2106878267960487e-13 -1.0066422683901397 0.0
2.242045430293249e-13 -3.237856845081577 0.0
-1.7079898567382518e-13 -5.2798562035819945 0.0
4.548556969643741e-13 -7.0779666019674075 0.0
-4.868289891546697e-13 -8.370244414994724 0.0
-2.427373294833499e-13 -9.317775504250156 0.0
8.789668035586335e-13 -9.898416831083125 0.0
-1.0243338007232733e-13 -10.493309492247718 0.0
-3.094366696014603e-13 -11.14386355141247 0.0
-6.255987298021829e-13 -12.04911660368821 0.0
1.4959618299517972e-12 -12.622568671491898 0.0
-8.25689992592043e-13 -12.905180110573435 0.0
-1.57572797147423e-12 -12.979583540802707 0.0
7.245814662483134e-13 -12.777759225934414 0.0
VECTORS boundary_conditions double
1.0 1.0 0.0
1.0 1.0 0.0
1.0 0.0 0.0
1.0 0.0 0.0
0.0 1.0 0.0
1.0 0.0 0.0
1.0 0.0 0.0
1.0 0.0 0.0
1.0 0.0 0.0
1.0 0.0 0.0
1.0 0.0 0.0
1.0 0.0 0.0
1.0 0.0 0.0
1.0 0.0 0.0
1.0 0.0 0.0
1.0 0.0 0.0
1.0 0.0 0.0
1.0 0.0 0.0
1.0 0.0 0.0
1.0 0.0 0.0
1.0 0.0 0.0
1.0 0.0 0.0
1.0 0.0 0.0
1.0 0.0 0.0
0.0 0.0 0.0
1.0 0.0 0.0
1.0 0.0 0.0
1.0 0.0 0.0
1.0 0.0 0.0
1.0 0.0 0.0
1.0 0.0 0.0
1.0 0.0 0.0
1.0 0.0 0.0
1.0 0.0 0.0
1.0 0.0 0.0
1.0 0.0 0.0
1.0 0.0 0.0
1.0 0.0 0.0
1.0 0.0 0.0
1.0 0.0 0.0
1.0 0.0 0.0
1.0 0.0 0.0
1.0 0.0 0.0
1.0 0.0 0.0
0.0 0.0 0.0
0.0 0.0 0.0
0.0 0.0 0.0
0.0 0.0 0.0
0.0 0.0 0.0
0.0 0.0 0.0
0.0 0.0 0.0
0.0 0.0 0.0
0.0 0.0 0.0
0.0 0.0 0.0
0.0 0.0 0.0
0.0 0.0 0.0
0.0 0.0 0.0
0.0 0.0 0.0
0.0 0.0 0.0
0.0 0.0 0.0
0.0 0.0 0.0
0.0 0.0 0.0
0.0 0.0 0.0
CELL_DATA 40
SCALARS material_index double
LOOKUP_TABLE default
1.0
1.0
1.0
1.0
1.0
1.0
1.0
1.0
1.0
1.0
1.0
1.0
1.0
1.0
1.0
1.0
1.0
1.0
1.0
1.0
1.0
1.0
1.0
1.0
1.0
1.0
1.0
1.0
1.0
1.0
1.0
1.0
1.0
1.0
1.0
1.0
1.0
1.0
1.0
1.0
SCALARS material_prop_density double
LOOKUP_TABLE default
1500.0
1500.0
1500.0
1500.0
1500.0
1500.0
1500.0
1500.0
1500.0
1500.0
1500.0
1500.0
1500.0
1500.0
1500.0
1500.0
1500.0
1500.0
1500.0
1500.0
1500.0
1500.0
1500.0
1500.0
1500.0
1500.0
1500.0
1500.0
1500.0
1500.0
1500.0
1500.0
1500.0
1500.0
1500.0
1500.0
1500.0
1500.0
1500.0
1500.0
SCALARS material_prop_Young double
LOOKUP_TABLE default
30000000.0
30000000.0
30000000.0
30000000.0
30000000.0
30000000.0
30000000.0
30000000.0
30000000.0
30000000.0
30000000.0
30000000.0
30000000.0
30000000.0
30000000.0
30000000.0
30000000.0
30000000.0
30000000.0
30000000.0
30000000.0
30000000.0
30000000.0
30000000.0
30000000.0
30000000.0
30000000.0
30000000.0
30000000.0
30000000.0
30000000.0
30000000.0
30000000.0
30000000.0
30000000.0
30000000.0
30000000.0
30000000.0
30000000.0
30000000.0
SCALARS material_prop_poisson double
LOOKUP_TABLE default
0.2
0.2
0.2
0.2
0.2
0.2
0.2
0.2
0.2
0.2
0.2
0.2
0.2
0.2
0.2
0.2
0.2
0.2
0.2
0.2
0.2
0.2
0.2
0.2
0.2
0.2
0.2
0.2
0.2
0.2
0.2
0.2
0.2
0.2
0.2
0.2
0.2
0.2
0.2
0.2
