# vtk DataFile Version 2.0
data_138
ASCII
DATASET UNSTRUCTURED_GRID
POINTS 63 float
0.0 0.0 0.0
1.0 0.0 0.0
1.0 10.0 0.0
0.0 10.0 0.0
0.4999999999986921 0.0 0.0
1.0 0.499999999999551 0.0
1.0 0.9999999999991888 0.0
1.0 1.499999999998284 0.0
1.0 1.999999999996824 0.0
1.0 2.499999999995364 0.0
1.0 2.999999999993903 0.0
1.0 3.499999999992442 0.0
1.0 3.999999999991017 0.0
1.0 4.499999999991639 0.0
1.0 4.999999999992399 0.0
1.0 5.499999999993159 0.0
1.0 5.99999999999392 0.0
1.0 6.499999999994679 0.0
1.0 6.999999999995438 0.0
1.0 7.499999999996199 0.0
1.0 7.99999999999696 0.0
1.0 8.49999999999772 0.0
1.0 8.99999999999848 0.0
1.0 9.49999999999924 0.0
0.5000000000020595 10.0 0.0
0.0 9.5 0.0
0.0 8.999999999999998 0.0
0.0 8.499999999999998 0.0
0.0 7.999999999999996 0.0
0.0 7.499999999999995 0.0
0.0 6.999999999999995 0.0
0.0 6.499999999999996 0.0
0.0 5.999999999999996 0.0
0.0 5.499999999999996 0.0
0.0 4.999999999999996 0.0
0.0 4.499999999999997 0.0
0.0 3.999999999999996 0.0
0.0 3.499999999999997 0.0
0.0 2.999999999999998 0.0
0.0 2.499999999999998 0.0
0.0 1.999999999999998 0.0
0.0 1.5 0.0
0.0 0.9999999999999982 0.0
0.0 0.5 0.0
0.4999999999988605 0.4999999999997756 0.0
0.4999999999990288 0.9999999999995937 0.0
0.4999999999991972 1.499999999999142 0.0
0.4999999999993656 1.999999999998411 0.0
0.499999999999534 2.499999999997681 0.0
0.4999999999997023 2.999999999996951 0.0
0.4999999999998707 3.49999999999622 0.0
0.5000000000000391 3.999999999995507 0.0
0.5000000000002074 4.499999999995817 0.0
0.5000000000003758 4.999999999996198 0.0
0.5000000000005441 5.499999999996577 0.0
0.5000000000007125 5.999999999996958 0.0
0.500000000000881 6.499999999997339 0.0
0.5000000000010493 6.999999999997716 0.0
0.5000000000012177 7.499999999998098 0.0
0.500000000001386 7.999999999998479 0.0
0.5000000000015543 8.499999999998856 0.0
0.5000000000017226 8.99999999999924 0.0
0.5000000000018909 9.49999999999962 0.0
CELLS 40 200
4 0 4 44 43
4 43 44 45 42
4 42 45 46 41
4 41 46 47 40
4 40 47 48 39
4 39 48 49 38
4 38 49 50 37
4 37 50 51 36
4 36 51 52 35
4 35 52 53 34
4 34 53 54 33
4 33 54 55 32
4 32 55 56 31
4 31 56 57 30
4 30 57 58 29
4 29 58 59 28
4 28 59 60 27
4 27 60 61 26
4 26 61 62 25
4 25 62 24 3
4 4 1 5 44
4 44 5 6 45
4 45 6 7 46
4 46 7 8 47
4 47 8 9 48
4 48 9 10 49
4 49 10 11 50
4 50 11 12 51
4 51 12 13 52
4 52 13 14 53
4 53 14 15 54
4 54 15 16 55
4 55 16 17 56
4 56 17 18 57
4 57 18 19 58
4 58 19 20 59
4 59 20 21 60
4 60 21 22 61
4 61 22 23 62
4 62 23 2 24
CELL_TYPES 40
9
9
9
9
9
9
9
9
9
9
9
9
9
9
9
9
9
9
9
9
9
9
9
9
9
9
9
9
9
9
9
9
9
9
9
9
9
9
9
9
POINT_DATA 63
VECTORS displacement double
0.0 0.0 0.0
0.0 0.0 0.0
0.0 -1.6738649281636178 0.0
0.0 -1.673864928163153 0.0
3.160102785526747e-16 0.0 0.0
0.0 -0.09201983571974462 0.0
0.0 -0.18299226370335722 0.0
0.0 -0.27209987593122353 0.0
0.0 -0.35883936405802036 0.0
0.0 -0.4435281941143376 0.0
0.0 -0.5273189680144328 0.0
0.0 -0.61155951162038 0.0
0.0 -0.6976715126679452 0.0
0.0 -0.7864879567797698 0.0
0.0 -0.8778512082265217 0.0
0.0 -0.9708175437839813 0.0
0.0 -1.0639434141869881 0.0
0.0 -1.1556632309456545 0.0
0.0 -1.2445601216037978 0.0
0.0 -1.3293360712999218 0.0
0.0 -1.4089436991899982 0.0
0.0 -1.4822685333470134 0.0
0.0 -1.548394808265206 0.0
0.0 -1.607267845772538 0.0
3.6483683418430396e-14 -1.6376856939503948 0.0
0.0 -1.6072678457725167 0.0
0.0 -1.5483948082653785 0.0
0.0 -1.4822685333473269 0.0
0.0 -1.4089436991904591 0.0
0.0 -1.3293360713005462 0.0
0.0 -1.2445601216045927 0.0
0.0 -1.1556632309466188 0.0
0.0 -1.0639434141881166 0.0
0.0 -0.9708175437852596 0.0
0.0 -0.8778512082279251 0.0
0.0 -0.7864879567812761 0.0
0.0 -0.6976715126695142 0.0
0.0 -0.611559511621663 0.0
0.0 -0.5273189680154549 0.0
0.0 -0.4435281941151161 0.0
0.0 -0.35883936405856315 0.0
0.0 -0.2720998759315247 0.0
0.0 -0.18299226370350394 0.0
0.0 -0.09201983571982786 0.0
-1.6646583590257496e-16 -0.09201446776040566 0.0
-2.183712967012413e-16 -0.18300160767025575 0.0
2.2037178653115658e-16 -0.2720947921783024 0.0
-7.970100153477523e-17 -0.3588467021077582 0.0
1.0465349133047321e-16 -0.4435109009451013 0.0
-3.278190123824954e-16 -0.5272913147045359 0.0
1.8020950230406846e-16 -0.6115410533857809 0.0
-2.3603618542124673e-16 -0.6976702405025722 0.0
-1.4252218856811236e-16 -0.7865176789448788 0.0
8.016571329227088e-16 -0.8778869542646947 0.0
6.190148892357851e-16 -0.9708150118876758 0.0
-4.50047584232971e-16 -1.063948941912088 0.0
-9.601686171410992e-17 -1.1557015602903937 0.0
-3.917832061748382e-16 -1.2445751270442085 0.0
-1.1596907439457542e-15 -1.32934242983236 0.0
-6.163025232812068e-16 -1.4089514231815536 0.0
1.6318301333533605e-16 -1.482278337407068 0.0
-6.175572616590107e-15 -1.5483051565189132 0.0
-3.76448114817209e-14 -1.6054621691677098 0.0
VECTORS velocity double
0.0 0.0 0.0
0.0 0.0 0.0
0.0 2.8466138403419414 0.0
0.0 2.846613840343924 0.0
3.331538473141342e-13 0.0 0.0
0.0 -0.5033026660870943 0.0
0.0 -0.8840337291673506 0.0
0.0 -1.079859843591171 0.0
0.0 -1.062981811580694 0.0
0.0 -0.8160466089854994 0.0
0.0 -0.34420481920141377 0.0
0.0 0.22861368945046934 0.0
0.0 0.8447855024869408 0.0
0.0 1.4312470631661238 0.0
0.0 2.0389455551736546 0.0
0.0 2.6023410550104042 0.0
0.0 3.1391585000351796 0.0
0.0 3.6347102223530037 0.0
0.0 4.058944810918529 0.0
0.0 4.303328919114811 0.0
0.0 4.212135847812833 0.0
0.0 3.890326648738082 0.0
0.0 3.4388573635002118 0.0
0.0 3.013801583152116 0.0
2.0702398515996556e-14 2.8571832513956785 0.0
0.0 3.0138015831532776 0.0
0.0 3.438857363500162 0.0
0.0 3.890326648738327 0.0
0.0 4.212135847812085 0.0
0.0 4.303328919115273 0.0
0.0 4.058944810922458 0.0
0.0 3.63471022235875 0.0
0.0 3.139158500041768 0.0
0.0 2.602341055018073 0.0
0.0 2.038945555183199 0.0
0.0 1.4312470631772154 0.0
0.0 0.8447855024984676 0.0
0.0 0.2286136894597739 0.0
0.0 -0.34420481919581825 0.0
0.0 -0.8160466089829388 0.0
0.0 -1.0629818115807943 0.0
0.0 -1.079859843591458 0.0
0.0 -0.884033729167605 0.0
0.0 -0.5033026660879183 0.0
-1.325293203594118e-13 -0.4870496768356891 0.0
1.4573315722124242e-14 -0.8538788160974606 0.0
-8.396662153828136e-14 -1.0674572209009483 0.0
5.359906155065314e-14 -1.0560820238173365 0.0
7.724916051919108e-14 -0.838885304263493 0.0
9.274928859295477e-14 -0.36135547824456005 0.0
-1.8693483728398854e-13 0.22369501104424394 0.0
-1.2745588702221065e-14 0.8368885439399758 0.0
1.8255170071574626e-14 1.4414459137529345 0.0
-1.0343743449058834e-13 2.0109485672962624 0.0
-9.456510885483274e-14 2.5906143655975242 0.0
-4.421275186626304e-13 3.1559774810999706 0.0
-3.660515317839999e-14 3.6488779193524348 0.0
2.5808748009285356e-13 4.051546381935488 0.0
3.35558580359639e-13 4.316900835864288 0.0
-3.918962980504004e-13 4.225279087658567 0.0
2.453593588751907e-13 3.902457772374863 0.0
3.3739249260135e-13 3.447624448758681 0.0
-3.964892176848517e-14 3.0282694897492632 0.0
VECTORS boundary_conditions double
1.0 1.0 0.0
1.0 1.0 0.0
1.0 0.0 0.0
1.0 0.0 0.0
0.0 1.0 0.0
1.0 0.0 0.0
1.0 0.0 0.0
1.0 0.0 0.0
1.0 0.0 0.0
1.0 0.0 0.0
1.0 0.0 0.0
1.0 0.0 0.0
1.0 0.0 0.0
1.0 0.0 0.0
1.0 0.0 0.0
1.0 0.0 0.0
1.0 0.0 0.0
1.0 0.0 0.0
1.0 0.0 0.0
1.0 0.0 0.0
1.0 0.0 0.0
1.0 0.0 0.0
1.0 0.0 0.0
1.0 0.0 0.0
0.0 0.0 0.0
1.0 0.0 0.0
1.0 0.0 0.0
1.0 0.0 0.0
1.0 0.0 0.0
1.0 0.0 0.0
1.0 0.0 0.0
1.0 0.0 0.0
1.0 0.0 0.0
1.0 0.0 0.0
1.0 0.0 0.0
1.0 0.0 0.0
1.0 0.0 0.0
1.0 0.0 0.0
1.0 0.0 0.0
1.0 0.0 0.0
1.0 0.0 0.0
1.0 0.0 0.0
1.0 0.0 0.0
1.0 0.0 0.0
0.0 0.0 0.0
0.0 0.0 0.0
0.0 0.0 0.0
0.0 0.0 0.0
0.0 0.0 0.0
0.0 0.0 0.0
0.0 0.0 0.0
0.0 0.0 0.0
0.0 0.0 0.0
0.0 0.0 0.0
0.0 0.0 0.0
0.0 0.0 0.0
0.0 0.0 0.0
0.0 0.0 0.0
0.0 0.0 0.0
0.0 0.0 0.0
0.0 0.0 0.0
0.0 0.0 0.0
0.0 0.0 0.0
CELL_DATA 40
SCALARS material_index double
LOOKUP_TABLE default
1.0
1.0
1.0
1.0
1.0
1.0
1.0
1.0
1.0
1.0
1.0
1.0
1.0
1.0
1.0
1.0
1.0
1.0
1.0
1.0
1.0
1.0
1.0
1.0
1.0
1.0
1.0
1.0
1.0
1.0
1.0
1.0
1.0
1.0
1.0
1.0
1.0
1.0
1.0
1.0
SCALARS material_prop_density double
LOOKUP_TABLE default
1500.0
1500.0
1500.0
1500.0
1500.0
1500.0
1500.0
1500.0
1500.0
1500.0
1500.0
1500.0
1500.0
1500.0
1500.0
1500.0
1500.0
1500.0
1500.0
1500.0
1500.0
1500.0
1500.0
1500.0
1500.0
1500.0
1500.0
1500.0
1500.0
1500.0
1500.0
1500.0
1500.0
1500.0
1500.0
1500.0
1500.0
1500.0
1500.0
1500.0
SCALARS material_prop_Young double
LOOKUP_TABLE default
30000000.0
30000000.0
30000000.0
30000000.0
30000000.0
30000000.0
30000000.0
30000000.0
30000000.0
30000000.0
30000000.0
30000000.0
30000000.0
30000000.0
30000000.0
30000000.0
30000000.0
30000000.0
30000000.0
30000000.0
30000000.0
30000000.0
30000000.0
30000000.0
30000000.0
30000000.0
30000000.0
30000000.0
30000000.0
30000000.0
30000000.0
30000000.0
30000000.0
30000000.0
30000000.0
30000000.0
30000000.0
30000000.0
30000000.0
30000000.0
SCALARS material_prop_poisson double
LOOKUP_TABLE default
0.2
0.2
0.2
0.2
0.2
0.2
0.2
0.2
0.2
0.2
0.2
0.2
0.2
0.2
0.2
0.2
0.2
0.2
0.2
0.2
0.2
0.2
0.2
0.2
0.2
0.2
0.2
0.2
0.2
0.2
0.2
0.2
0.2
0.2
0.2
0.2
0.2
0.2
0.2
0.2
