# vtk DataFile Version 2.0
data_92
ASCII
DATASET UNSTRUCTURED_GRID
POINTS 63 float
0.0 0.0 0.0
1.0 0.0 0.0
1.0 10.0 0.0
0.0 10.0 0.0
0.4999999999986921 0.0 0.0
1.0 0.499999999999551 0.0
1.0 0.9999999999991888 0.0
1.0 1.499999999998284 0.0
1.0 1.999999999996824 0.0
1.0 2.499999999995364 0.0
1.0 2.999999999993903 0.0
1.0 3.499999999992442 0.0
1.0 3.999999999991017 0.0
1.0 4.499999999991639 0.0
1.0 4.999999999992399 0.0
1.0 5.499999999993159 0.0
1.0 5.99999999999392 0.0
1.0 6.499999999994679 0.0
1.0 6.999999999995438 0.0
1.0 7.499999999996199 0.0
1.0 7.99999999999696 0.0
1.0 8.49999999999772 0.0
1.0 8.99999999999848 0.0
1.0 9.49999999999924 0.0
0.5000000000020595 10.0 0.0
0.0 9.5 0.0
0.0 8.999999999999998 0.0
0.0 8.499999999999998 0.0
0.0 7.999999999999996 0.0
0.0 7.499999999999995 0.0
0.0 6.999999999999995 0.0
0.0 6.499999999999996 0.0
0.0 5.999999999999996 0.0
0.0 5.499999999999996 0.0
0.0 4.999999999999996 0.0
0.0 4.499999999999997 0.0
0.0 3.999999999999996 0.0
0.0 3.499999999999997 0.0
0.0 2.999999999999998 0.0
0.0 2.499999999999998 0.0
0.0 1.999999999999998 0.0
0.0 1.5 0.0
0.0 0.9999999999999982 0.0
0.0 0.5 0.0
0.4999999999988605 0.4999999999997756 0.0
0.4999999999990288 0.9999999999995937 0.0
0.4999999999991972 1.499999999999142 0.0
0.4999999999993656 1.999999999998411 0.0
0.499999999999534 2.499999999997681 0.0
0.4999999999997023 2.999999999996951 0.0
0.4999999999998707 3.49999999999622 0.0
0.5000000000000391 3.999999999995507 0.0
0.5000000000002074 4.499999999995817 0.0
0.5000000000003758 4.999999999996198 0.0
0.5000000000005441 5.499999999996577 0.0
0.5000000000007125 5.999999999996958 0.0
0.500000000000881 6.499999999997339 0.0
0.5000000000010493 6.999999999997716 0.0
0.5000000000012177 7.499999999998098 0.0
0.500000000001386 7.999999999998479 0.0
0.5000000000015543 8.499999999998856 0.0
0.5000000000017226 8.99999999999924 0.0
0.5000000000018909 9.49999999999962 0.0
CELLS 40 200
4 0 4 44 43
4 43 44 45 42
4 42 45 46 41
4 41 46 47 40
4 40 47 48 39
4 39 48 49 38
4 38 49 50 37
4 37 50 51 36
4 36 51 52 35
4 35 52 53 34
4 34 53 54 33
4 33 54 55 32
4 32 55 56 31
4 31 56 57 30
4 30 57 58 29
4 29 58 59 28
4 28 59 60 27
4 27 60 61 26
4 26 61 62 25
4 25 62 24 3
4 4 1 5 44
4 44 5 6 45
4 45 6 7 46
4 46 7 8 47
4 47 8 9 48
4 48 9 10 49
4 49 10 11 50
4 50 11 12 51
4 51 12 13 52
4 52 13 14 53
4 53 14 15 54
4 54 15 16 55
4 55 16 17 56
4 56 17 18 57
4 57 18 19 58
4 58 19 20 59
4 59 20 21 60
4 60 21 22 61
4 61 22 23 62
4 62 23 2 24
CELL_TYPES 40
9
9
9
9
9
9
9
9
9
9
9
9
9
9
9
9
9
9
9
9
9
9
9
9
9
9
9
9
9
9
9
9
9
9
9
9
9
9
9
9
POINT_DATA 63
VECTORS displacement double
0.0 0.0 0.0
0.0 0.0 0.0
0.0 -1.1644714438725035 0.0
0.0 -1.1644714438720385 0.0
3.099622092060775e-16 0.0 0.0
0.0 -0.08275525320871753 0.0
0.0 -0.1652301278996592 0.0
0.0 -0.24703875946110718 0.0
0.0 -0.3274616345372654 0.0
0.0 -0.40533504888980737 0.0
0.0 -0.4794186985032893 0.0
0.0 -0.5490007099615526 0.0
0.0 -0.6135837155789562 0.0
0.0 -0.6727388435345051 0.0
0.0 -0.7267546537816082 0.0
0.0 -0.7766450409339632 0.0
0.0 -0.8229917472058295 0.0
0.0 -0.8665105161646487 0.0
0.0 -0.9078303743681565 0.0
0.0 -0.9473778684414118 0.0
0.0 -0.9857049342806586 0.0
0.0 -1.0236739146800289 0.0
0.0 -1.0624192270352089 0.0
0.0 -1.1038918054897826 0.0
3.6823218344909447e-14 -1.1282288817409818 0.0
0.0 -1.1038918054897429 0.0
0.0 -1.0624192270353097 0.0
0.0 -1.023673914680196 0.0
0.0 -0.9857049342808866 0.0
0.0 -0.9473778684417065 0.0
0.0 -0.9078303743685253 0.0
0.0 -0.8665105161650993 0.0
0.0 -0.8229917472063725 0.0
0.0 -0.7766450409346196 0.0
0.0 -0.726754653782396 0.0
0.0 -0.6727388435354474 0.0
0.0 -0.6135837155800724 0.0
0.0 -0.5490007099625712 0.0
0.0 -0.47941869850416674 0.0
0.0 -0.4053350488905131 0.0
0.0 -0.32746163453776944 0.0
0.0 -0.2470387594613835 0.0
0.0 -0.1652301278997897 0.0
0.0 -0.08275525320879133 0.0
-1.791872069720528e-16 -0.08276574334822105 0.0
-1.266886912159873e-15 -0.1652430978084754 0.0
1.1465527541743405e-15 -0.24707832805487345 0.0
-5.190723981334047e-16 -0.32749493375848104 0.0
-5.677984677823822e-16 -0.40524717795429643 0.0
1.079883918117003e-15 -0.47935838209197285 0.0
3.8284614906383914e-16 -0.548990760644828 0.0
8.081238890693533e-16 -0.6135968169052384 0.0
-1.3545466742807984e-15 -0.6728148029456724 0.0
9.518212584115916e-16 -0.7268014250278874 0.0
-8.522772463068624e-16 -0.7767141486715828 0.0
9.128577118994144e-16 -0.82300430124788 0.0
-6.214424660941003e-16 -0.8665211146565274 0.0
-9.370805000692087e-16 -0.9077994899175721 0.0
-3.5165030935049294e-17 -0.9473409996074972 0.0
3.0530657945682075e-16 -0.9856507467349904 0.0
7.075604636572845e-16 -1.0236099554710043 0.0
-6.101472189345854e-15 -1.0622678296536485 0.0
-3.9702566450175096e-14 -1.1020118123674332 0.0
VECTORS velocity double
0.0 0.0 0.0
0.0 0.0 0.0
0.0 11.686954276560432 0.0
0.0 11.686954276557277 0.0
-3.1655051358316e-13 0.0 0.0
0.0 0.4560954128461503 0.0
0.0 1.015835896784917 0.0
0.0 2.018575167465206 0.0
0.0 3.0549938096804814 0.0
0.0 4.246588168479561 0.0
0.0 5.365650204591709 0.0
0.0 6.380856013801202 0.0
0.0 7.532297367329587 0.0
0.0 8.931044066371307 0.0
0.0 10.682408520774047 0.0
0.0 12.480430863987724 0.0
0.0 14.125185499294869 0.0
0.0 15.29728534383978 0.0
0.0 15.752609888600698 0.0
0.0 15.661278680977471 0.0
0.0 15.002380177621216 0.0
0.0 13.880515401215657 0.0
0.0 12.844112508472131 0.0
0.0 12.041157604391213 0.0
-9.259827366045786e-13 11.713486213341856 0.0
0.0 12.041157604389351 0.0
0.0 12.844112508468053 0.0
0.0 13.88051540120995 0.0
0.0 15.002380177614738 0.0
0.0 15.661278680975622 0.0
0.0 15.752609888600587 0.0
0.0 15.297285343848515 0.0
0.0 14.125185499313648 0.0
0.0 12.480430864011954 0.0
0.0 10.682408520801838 0.0
0.0 8.931044066398464 0.0
0.0 7.532297367352648 0.0
0.0 6.38085601381699 0.0
0.0 5.365650204602394 0.0
0.0 4.246588168491576 0.0
0.0 3.0549938096871037 0.0
0.0 2.0185751674669246 0.0
0.0 1.0158358967861991 0.0
0.0 0.4560954128478938 0.0
5.080636368589474e-13 0.2964411704514027 0.0
-2.6052550243871336e-13 1.0452328353674307 0.0
5.702471418062622e-14 2.074038608169136 0.0
-4.34086511894097e-13 3.081523804420092 0.0
3.33540083318065e-13 4.27362967760938 0.0
8.690865006650059e-13 5.32623741002493 0.0
-1.4085630794722521e-12 6.361630294143739 0.0
2.196608735992886e-13 7.473357889049687 0.0
3.952995319059485e-13 8.921855806597227 0.0
1.56784107556741e-13 10.688192599223441 0.0
-7.768314593161292e-13 12.501802190921177 0.0
8.124066768538518e-14 14.176234699766518 0.0
3.78717782517268e-13 15.323902180199344 0.0
-1.3773565539084232e-13 15.80936636334752 0.0
8.945991656776607e-13 15.673727159912938 0.0
1.7513425866933322e-13 15.046194275840772 0.0
-5.859259268158052e-13 13.877449152453357 0.0
-7.04382244758162e-13 12.87533713225988 0.0
-5.012682850126308e-13 12.02956348637511 0.0
VECTORS boundary_conditions double
1.0 1.0 0.0
1.0 1.0 0.0
1.0 0.0 0.0
1.0 0.0 0.0
0.0 1.0 0.0
1.0 0.0 0.0
1.0 0.0 0.0
1.0 0.0 0.0
1.0 0.0 0.0
1.0 0.0 0.0
1.0 0.0 0.0
1.0 0.0 0.0
1.0 0.0 0.0
1.0 0.0 0.0
1.0 0.0 0.0
1.0 0.0 0.0
1.0 0.0 0.0
1.0 0.0 0.0
1.0 0.0 0.0
1.0 0.0 0.0
1.0 0.0 0.0
1.0 0.0 0.0
1.0 0.0 0.0
1.0 0.0 0.0
0.0 0.0 0.0
1.0 0.0 0.0
1.0 0.0 0.0
1.0 0.0 0.0
1.0 0.0 0.0
1.0 0.0 0.0
1.0 0.0 0.0
1.0 0.0 0.0
1.0 0.0 0.0
1.0 0.0 0.0
1.0 0.0 0.0
1.0 0.0 0.0
1.0 0.0 0.0
1.0 0.0 0.0
1.0 0.0 0.0
1.0 0.0 0.0
1.0 0.0 0.0
1.0 0.0 0.0
1.0 0.0 0.0
1.0 0.0 0.0
0.0 0.0 0.0
0.0 0.0 0.0
0.0 0.0 0.0
0.0 0.0 0.0
0.0 0.0 0.0
0.0 0.0 0.0
0.0 0.0 0.0
0.0 0.0 0.0
0.0 0.0 0.0
0.0 0.0 0.0
0.0 0.0 0.0
0.0 0.0 0.0
0.0 0.0 0.0
0.0 0.0 0.0
0.0 0.0 0.0
0.0 0.0 0.0
0.0 0.0 0.0
0.0 0.0 0.0
0.0 0.0 0.0
CELL_DATA 40
SCALARS material_index double
LOOKUP_TABLE default
1.0
1.0
1.0
1.0
1.0
1.0
1.0
1.0
1.0
1.0
1.0
1.0
1.0
1.0
1.0
1.0
1.0
1.0
1.0
1.0
1.0
1.0
1.0
1.0
1.0
1.0
1.0
1.0
1.0
1.0
1.0
1.0
1.0
1.0
1.0
1.0
1.0
1.0
1.0
1.0
SCALARS material_prop_density double
LOOKUP_TABLE default
1500.0
1500.0
1500.0
1500.0
1500.0
1500.0
1500.0
1500.0
1500.0
1500.0
1500.0
1500.0
1500.0
1500.0
1500.0
1500.0
1500.0
1500.0
1500.0
1500.0
1500.0
1500.0
1500.0
1500.0
1500.0
1500.0
1500.0
1500.0
1500.0
1500.0
1500.0
1500.0
1500.0
1500.0
1500.0
1500.0
1500.0
1500.0
1500.0
1500.0
SCALARS material_prop_Young double
LOOKUP_TABLE default
30000000.0
30000000.0
30000000.0
30000000.0
30000000.0
30000000.0
30000000.0
30000000.0
30000000.0
30000000.0
30000000.0
30000000.0
30000000.0
30000000.0
30000000.0
30000000.0
30000000.0
30000000.0
30000000.0
30000000.0
30000000.0
30000000.0
30000000.0
30000000.0
30000000.0
30000000.0
30000000.0
30000000.0
30000000.0
30000000.0
30000000.0
30000000.0
30000000.0
30000000.0
30000000.0
30000000.0
30000000.0
30000000.0
30000000.0
30000000.0
SCALARS material_prop_poisson double
LOOKUP_TABLE default
0.2
0.2
0.2
0.2
0.2
0.2
0.2
0.2
0.2
0.2
0.2
0.2
0.2
0.2
0.2
0.2
0.2
0.2
0.2
0.2
0.2
0.2
0.2
0.2
0.2
0.2
0.2
0.2
0.2
0.2
0.2
0.2
0.2
0.2
0.2
0.2
0.2
0.2
0.2
0.2
