# vtk DataFile Version 2.0
data_95
ASCII
DATASET UNSTRUCTURED_GRID
POINTS 63 float
0.0 0.0 0.0
1.0 0.0 0.0
1.0 10.0 0.0
0.0 10.0 0.0
0.4999999999986921 0.0 0.0
1.0 0.499999999999551 0.0
1.0 0.9999999999991888 0.0
1.0 1.499999999998284 0.0
1.0 1.999999999996824 0.0
1.0 2.499999999995364 0.0
1.0 2.999999999993903 0.0
1.0 3.499999999992442 0.0
1.0 3.999999999991017 0.0
1.0 4.499999999991639 0.0
1.0 4.999999999992399 0.0
1.0 5.499999999993159 0.0
1.0 5.99999999999392 0.0
1.0 6.499999999994679 0.0
1.0 6.999999999995438 0.0
1.0 7.499999999996199 0.0
1.0 7.99999999999696 0.0
1.0 8.49999999999772 0.0
1.0 8.99999999999848 0.0
1.0 9.49999999999924 0.0
0.5000000000020595 10.0 0.0
0.0 9.5 0.0
0.0 8.999999999999998 0.0
0.0 8.499999999999998 0.0
0.0 7.999999999999996 0.0
0.0 7.499999999999995 0.0
0.0 6.999999999999995 0.0
0.0 6.499999999999996 0.0
0.0 5.999999999999996 0.0
0.0 5.499999999999996 0.0
0.0 4.999999999999996 0.0
0.0 4.499999999999997 0.0
0.0 3.999999999999996 0.0
0.0 3.499999999999997 0.0
0.0 2.999999999999998 0.0
0.0 2.499999999999998 0.0
0.0 1.999999999999998 0.0
0.0 1.5 0.0
0.0 0.9999999999999982 0.0
0.0 0.5 0.0
0.4999999999988605 0.4999999999997756 0.0
0.4999999999990288 0.9999999999995937 0.0
0.4999999999991972 1.499999999999142 0.0
0.4999999999993656 1.999999999998411 0.0
0.499999999999534 2.499999999997681 0.0
0.4999999999997023 2.999999999996951 0.0
0.4999999999998707 3.49999999999622 0.0
0.5000000000000391 3.999999999995507 0.0
0.5000000000002074 4.499999999995817 0.0
0.5000000000003758 4.999999999996198 0.0
0.5000000000005441 5.499999999996577 0.0
0.5000000000007125 5.999999999996958 0.0
0.500000000000881 6.499999999997339 0.0
0.5000000000010493 6.999999999997716 0.0
0.5000000000012177 7.499999999998098 0.0
0.500000000001386 7.999999999998479 0.0
0.5000000000015543 8.499999999998856 0.0
0.5000000000017226 8.99999999999924 0.0
0.5000000000018909 9.49999999999962 0.0
CELLS 40 200
4 0 4 44 43
4 43 44 45 42
4 42 45 46 41
4 41 46 47 40
4 40 47 48 39
4 39 48 49 38
4 38 49 50 37
4 37 50 51 36
4 36 51 52 35
4 35 52 53 34
4 34 53 54 33
4 33 54 55 32
4 32 55 56 31
4 31 56 57 30
4 30 57 58 29
4 29 58 59 28
4 28 59 60 27
4 27 60 61 26
4 26 61 62 25
4 25 62 24 3
4 4 1 5 44
4 44 5 6 45
4 45 6 7 46
4 46 7 8 47
4 47 8 9 48
4 48 9 10 49
4 49 10 11 50
4 50 11 12 51
4 51 12 13 52
4 52 13 14 53
4 53 14 15 54
4 54 15 16 55
4 55 16 17 56
4 56 17 18 57
4 57 18 19 58
4 58 19 20 59
4 59 20 21 60
4 60 21 22 61
4 61 22 23 62
4 62 23 2 24
CELL_TYPES 40
9
9
9
9
9
9
9
9
9
9
9
9
9
9
9
9
9
9
9
9
9
9
9
9
9
9
9
9
9
9
9
9
9
9
9
9
9
9
9
9
POINT_DATA 63
VECTORS displacement double
0.0 0.0 0.0
0.0 0.0 0.0
0.0 -0.9884924429373362 0.0
0.0 -0.9884924429368707 0.0
9.773683433022367e-16 0.0 0.0
0.0 -0.06566947961788296 0.0
0.0 -0.13030081813578542 0.0
0.0 -0.19245170463227174 0.0
0.0 -0.25133148753643914 0.0
0.0 -0.30614790783240364 0.0
0.0 -0.35669843423083036 0.0
0.0 -0.40330401235611796 0.0
0.0 -0.4466439154525331 0.0
0.0 -0.48741052682021446 0.0
0.0 -0.5262556082900393 0.0
0.0 -0.5642231659396296 0.0
0.0 -0.6019302768824822 0.0
0.0 -0.6405978625210959 0.0
0.0 -0.6817331326130216 0.0
0.0 -0.7261569069337225 0.0
0.0 -0.7738336895647037 0.0
0.0 -0.823836754389423 0.0
0.0 -0.8744589207076994 0.0
0.0 -0.9246724780077217 0.0
3.7386435287990975e-14 -0.9522437336131094 0.0
0.0 -0.9246724780076903 0.0
0.0 -0.8744589207078343 0.0
0.0 -0.8238367543896492 0.0
0.0 -0.7738336895650015 0.0
0.0 -0.7261569069340735 0.0
0.0 -0.6817331326134123 0.0
0.0 -0.6405978625215176 0.0
0.0 -0.6019302768829433 0.0
0.0 -0.5642231659401468 0.0
0.0 -0.5262556082906215 0.0
0.0 -0.4874105268208764 0.0
0.0 -0.44664391545329 0.0
0.0 -0.4033040123567953 0.0
0.0 -0.3566984342314206 0.0
0.0 -0.30614790783289353 0.0
0.0 -0.25133148753680395 0.0
0.0 -0.19245170463247976 0.0
0.0 -0.13030081813588848 0.0
0.0 -0.06566947961794393 0.0
2.5421818831275585e-16 -0.06575084258629395 0.0
-1.767307242463023e-15 -0.13027698310340635 0.0
1.3407541079202357e-15 -0.19248103705569455 0.0
6.61870683500698e-17 -0.25136780568253275 0.0
-1.4654456807303499e-15 -0.30606762884215905 0.0
2.346521594716151e-16 -0.35665000753268167 0.0
9.645700744458696e-16 -0.40327106795236506 0.0
8.694666265234625e-16 -0.4466715097590746 0.0
-1.4883492200742262e-15 -0.48745982855030506 0.0
1.2226186623637848e-15 -0.52630950684195 0.0
-2.7065340584518764e-16 -0.5642876268930409 0.0
6.495462894825118e-16 -0.6019508961912186 0.0
-1.0748554241885084e-15 -0.6406245756768509 0.0
-1.1573029688921957e-15 -0.6817081334739513 0.0
1.9655710309520146e-17 -0.7261454319749261 0.0
1.8725521617379405e-16 -0.7737799914297065 0.0
9.607164912286193e-16 -0.8237993149568575 0.0
-5.294545683660885e-15 -0.8743031950620651 0.0
-3.8739713189534765e-14 -0.9228180042550506 0.0
VECTORS velocity double
0.0 0.0 0.0
0.0 0.0 0.0
0.0 13.099243557242659 0.0
0.0 13.099243557243906 0.0
3.548454160679282e-14 0.0 0.0
0.0 2.0873135882150198 0.0
0.0 3.9792026575991515 0.0
0.0 5.739532530070447 0.0
0.0 7.301227216114617 0.0
0.0 9.083385091291785 0.0
0.0 10.957927470707684 0.0
0.0 12.705479714677773 0.0
0.0 14.137619586024886 0.0
0.0 15.076022594133342 0.0
0.0 15.435172419775387 0.0
0.0 15.196888258696635 0.0
0.0 14.598937925357511 0.0
0.0 13.89907758935554 0.0
0.0 13.225971483959167 0.0
0.0 12.831857337738523 0.0
0.0 12.69413241733201 0.0
0.0 12.671482615077544 0.0
0.0 12.888149558966463 0.0
0.0 13.079906340523298 0.0
-5.169878824416523e-13 13.122489891079418 0.0
0.0 13.079906340525028 0.0
0.0 12.888149558968896 0.0
0.0 12.671482615080363 0.0
0.0 12.694132417333071 0.0
0.0 12.83185733773806 0.0
0.0 13.225971483952838 0.0
0.0 13.899077589347158 0.0
0.0 14.59893792534957 0.0
0.0 15.196888258689643 0.0
0.0 15.435172419776906 0.0
0.0 15.07602259414367 0.0
0.0 14.137619586046522 0.0
0.0 12.705479714701154 0.0
0.0 10.957927470729688 0.0
0.0 9.083385091311253 0.0
0.0 7.3012272161250475 0.0
0.0 5.739532530075847 0.0
0.0 3.9792026576037087 0.0
0.0 2.0873135882181497 0.0
9.467827214214081e-14 1.9653252768967098 0.0
-4.151919695522419e-13 3.974393246370264 0.0
1.018349177905754e-13 5.794575101809231 0.0
-1.6332096672808027e-13 7.358321699048589 0.0
5.282780951312718e-15 9.074229483704332 0.0
1.1015612294399357e-12 10.940904526260763 0.0
-5.731638531956495e-13 12.68485950107079 0.0
-3.572819715398122e-13 14.078050252147225 0.0
3.5499902993274633e-13 15.074281430806542 0.0
-2.7484960927397144e-13 15.417374645681875 0.0
-3.508114050056121e-14 15.23196491598056 0.0
-1.467998381646957e-13 14.62084265446926 0.0
3.318069941671454e-13 13.943943021370611 0.0
-4.900340034431765e-13 13.26147152342788 0.0
6.357399397043374e-13 12.864937416750584 0.0
2.4901195810065404e-13 12.726329554361506 0.0
-1.4328070005821503e-13 12.689076086422412 0.0
-4.771329539219657e-13 12.914034596148454 0.0
-7.421879258714562e-13 13.088278665842061 0.0
VECTORS boundary_conditions double
1.0 1.0 0.0
1.0 1.0 0.0
1.0 0.0 0.0
1.0 0.0 0.0
0.0 1.0 0.0
1.0 0.0 0.0
1.0 0.0 0.0
1.0 0.0 0.0
1.0 0.0 0.0
1.0 0.0 0.0
1.0 0.0 0.0
1.0 0.0 0.0
1.0 0.0 0.0
1.0 0.0 0.0
1.0 0.0 0.0
1.0 0.0 0.0
1.0 0.0 0.0
1.0 0.0 0.0
1.0 0.0 0.0
1.0 0.0 0.0
1.0 0.0 0.0
1.0 0.0 0.0
1.0 0.0 0.0
1.0 0.0 0.0
0.0 0.0 0.0
1.0 0.0 0.0
1.0 0.0 0.0
1.0 0.0 0.0
1.0 0.0 0.0
1.0 0.0 0.0
1.0 0.0 0.0
1.0 0.0 0.0
1.0 0.0 0.0
1.0 0.0 0.0
1.0 0.0 0.0
1.0 0.0 0.0
1.0 0.0 0.0
1.0 0.0 0.0
1.0 0.0 0.0
1.0 0.0 0.0
1.0 0.0 0.0
1.0 0.0 0.0
1.0 0.0 0.0
1.0 0.0 0.0
0.0 0.0 0.0
0.0 0.0 0.0
0.0 0.0 0.0
0.0 0.0 0.0
0.0 0.0 0.0
0.0 0.0 0.0
0.0 0.0 0.0
0.0 0.0 0.0
0.0 0.0 0.0
0.0 0.0 0.0
0.0 0.0 0.0
0.0 0.0 0.0
0.0 0.0 0.0
0.0 0.0 0.0
0.0 0.0 0.0
0.0 0.0 0.0
0.0 0.0 0.0
0.0 0.0 0.0
0.0 0.0 0.0
CELL_DATA 40
SCALARS material_index double
LOOKUP_TABLE default
1.0
1.0
1.0
1.0
1.0
1.0
1.0
1.0
1.0
1.0
1.0
1.0
1.0
1.0
1.0
1.0
1.0
1.0
1.0
1.0
1.0
1.0
1.0
1.0
1.0
1.0
1.0
1.0
1.0
1.0
1.0
1.0
1.0
1.0
1.0
1.0
1.0
1.0
1.0
1.0
SCALARS material_prop_density double
LOOKUP_TABLE default
1500.0
1500.0
1500.0
1500.0
1500.0
1500.0
1500.0
1500.0
1500.0
1500.0
1500.0
1500.0
1500.0
1500.0
1500.0
1500.0
1500.0
1500.0
1500.0
1500.0
1500.0
1500.0
1500.0
1500.0
1500.0
1500.0
1500.0
1500.0
1500.0
1500.0
1500.0
1500.0
1500.0
1500.0
1500.0
1500.0
1500.0
1500.0
1500.0
1500.0
SCALARS material_prop_Young double
LOOKUP_TABLE default
30000000.0
30000000.0
30000000.0
30000000.0
30000000.0
30000000.0
30000000.0
30000000.0
30000000.0
30000000.0
30000000.0
30000000.0
30000000.0
30000000.0
30000000.0
30000000.0
30000000.0
30000000.0
30000000.0
30000000.0
30000000.0
30000000.0
30000000.0
30000000.0
30000000.0
30000000.0
30000000.0
30000000.0
30000000.0
30000000.0
30000000.0
30000000.0
30000000.0
30000000.0
30000000.0
30000000.0
30000000.0
30000000.0
30000000.0
30000000.0
SCALARS material_prop_poisson double
LOOKUP_TABLE default
0.2
0.2
0.2
0.2
0.2
0.2
0.2
0.2
0.2
0.2
0.2
0.2
0.2
0.2
0.2
0.2
0.2
0.2
0.2
0.2
0.2
0.2
0.2
0.2
0.2
0.2
0.2
0.2
0.2
0.2
0.2
0.2
0.2
0.2
0.2
0.2
0.2
0.2
0.2
0.2
