# vtk DataFile Version 2.0
data_119
ASCII
DATASET UNSTRUCTURED_GRID
POINTS 63 float
0.0 0.0 0.0
1.0 0.0 0.0
1.0 10.0 0.0
0.0 10.0 0.0
0.4999999999986921 0.0 0.0
1.0 0.499999999999551 0.0
1.0 0.9999999999991888 0.0
1.0 1.499999999998284 0.0
1.0 1.999999999996824 0.0
1.0 2.499999999995364 0.0
1.0 2.999999999993903 0.0
1.0 3.499999999992442 0.0
1.0 3.999999999991017 0.0
1.0 4.499999999991639 0.0
1.0 4.999999999992399 0.0
1.0 5.499999999993159 0.0
1.0 5.99999999999392 0.0
1.0 6.499999999994679 0.0
1.0 6.999999999995438 0.0
1.0 7.499999999996199 0.0
1.0 7.99999999999696 0.0
1.0 8.49999999999772 0.0
1.0 8.99999999999848 0.0
1.0 9.49999999999924 0.0
0.5000000000020595 10.0 0.0
0.0 9.5 0.0
0.0 8.999999999999998 0.0
0.0 8.499999999999998 0.0
0.0 7.999999999999996 0.0
0.0 7.499999999999995 0.0
0.0 6.999999999999995 0.0
0.0 6.499999999999996 0.0
0.0 5.999999999999996 0.0
0.0 5.499999999999996 0.0
0.0 4.999999999999996 0.0
0.0 4.499999999999997 0.0
0.0 3.999999999999996 0.0
0.0 3.499999999999997 0.0
0.0 2.999999999999998 0.0
0.0 2.499999999999998 0.0
0.0 1.999999999999998 0.0
0.0 1.5 0.0
0.0 0.9999999999999982 0.0
0.0 0.5 0.0
0.4999999999988605 0.4999999999997756 0.0
0.4999999999990288 0.9999999999995937 0.0
0.4999999999991972 1.499999999999142 0.0
0.4999999999993656 1.999999999998411 0.0
0.499999999999534 2.499999999997681 0.0
0.4999999999997023 2.999999999996951 0.0
0.4999999999998707 3.49999999999622 0.0
0.5000000000000391 3.999999999995507 0.0
0.5000000000002074 4.499999999995817 0.0
0.5000000000003758 4.999999999996198 0.0
0.5000000000005441 5.499999999996577 0.0
0.5000000000007125 5.999999999996958 0.0
0.500000000000881 6.499999999997339 0.0
0.5000000000010493 6.999999999997716 0.0
0.5000000000012177 7.499999999998098 0.0
0.500000000001386 7.999999999998479 0.0
0.5000000000015543 8.499999999998856 0.0
0.5000000000017226 8.99999999999924 0.0
0.5000000000018909 9.49999999999962 0.0
CELLS 40 200
4 0 4 44 43
4 43 44 45 42
4 42 45 46 41
4 41 46 47 40
4 40 47 48 39
4 39 48 49 38
4 38 49 50 37
4 37 50 51 36
4 36 51 52 35
4 35 52 53 34
4 34 53 54 33
4 33 54 55 32
4 32 55 56 31
4 31 56 57 30
4 30 57 58 29
4 29 58 59 28
4 28 59 60 27
4 27 60 61 26
4 26 61 62 25
4 25 62 24 3
4 4 1 5 44
4 44 5 6 45
4 45 6 7 46
4 46 7 8 47
4 47 8 9 48
4 48 9 10 49
4 49 10 11 50
4 50 11 12 51
4 51 12 13 52
4 52 13 14 53
4 53 14 15 54
4 54 15 16 55
4 55 16 17 56
4 56 17 18 57
4 57 18 19 58
4 58 19 20 59
4 59 20 21 60
4 60 21 22 61
4 61 22 23 62
4 62 23 2 24
CELL_TYPES 40
9
9
9
9
9
9
9
9
9
9
9
9
9
9
9
9
9
9
9
9
9
9
9
9
9
9
9
9
9
9
9
9
9
9
9
9
9
9
9
9
POINT_DATA 63
VECTORS displacement double
0.0 0.0 0.0
0.0 0.0 0.0
0.0 -0.6889124692615339 0.0
0.0 -0.6889124692610675 0.0
-8.355754082686847e-16 0.0 0.0
0.0 -0.00794645107358194 0.0
0.0 -0.01663239834772446 0.0
0.0 -0.026478894010897206 0.0
0.0 -0.038326031459892454 0.0
0.0 -0.05294387448597395 0.0
0.0 -0.07105792477400524 0.0
0.0 -0.09320686953942912 0.0
0.0 -0.119712212878964 0.0
0.0 -0.15010988894508343 0.0
0.0 -0.18413703045969712 0.0
0.0 -0.22176207864214523 0.0
0.0 -0.2629008321833226 0.0
0.0 -0.30782457195006563 0.0
0.0 -0.3566080083479442 0.0
0.0 -0.4089752697061458 0.0
0.0 -0.46369512036421323 0.0
0.0 -0.5188827324460039 0.0
0.0 -0.5727397381175992 0.0
0.0 -0.6246239095747981 0.0
3.793479648963511e-14 -0.6527609159059314 0.0
0.0 -0.6246239095747693 0.0
0.0 -0.5727397381177428 0.0
0.0 -0.5188827324462502 0.0
0.0 -0.46369512036454946 0.0
0.0 -0.40897526970655496 0.0
0.0 -0.3566080083484054 0.0
0.0 -0.30782457195056484 0.0
0.0 -0.2629008321838481 0.0
0.0 -0.2217620786426863 0.0
0.0 -0.18413703046024338 0.0
0.0 -0.15010988894562305 0.0
0.0 -0.11971221287947732 0.0
0.0 -0.09320686953979525 0.0
0.0 -0.07105792477424697 0.0
0.0 -0.052943874486123525 0.0
0.0 -0.038326031459972064 0.0
0.0 -0.026478894010929933 0.0
0.0 -0.016632398347738112 0.0
0.0 -0.007946451073588207 0.0
2.3557029034290043e-16 -0.00800421846719429 0.0
1.3156453887133946e-16 -0.01667504755306951 0.0
-6.550395157927356e-16 -0.02650789136215955 0.0
9.069330822283815e-16 -0.03829436802626313 0.0
-6.079763813911022e-18 -0.05290421342972576 0.0
-8.250174366749134e-16 -0.07105953806947676 0.0
9.761241257896557e-16 -0.0932052101970052 0.0
3.9706087123828367e-16 -0.11965506872945804 0.0
-3.1860897543821205e-17 -0.15009356742351615 0.0
-7.043206939319412e-16 -0.18416326625669477 0.0
-8.174098884401163e-18 -0.2217747148689664 0.0
-6.246929154278553e-16 -0.2629260977624125 0.0
-4.600807957134434e-16 -0.3078509384092079 0.0
5.529874537822335e-16 -0.35664785755154393 0.0
1.0496378692370216e-15 -0.408998684938833 0.0
4.48106847515177e-16 -0.46373071471977384 0.0
-8.333612850727599e-16 -0.5188982889001521 0.0
-6.686430650972572e-15 -0.5726804429951224 0.0
-3.8483869323136045e-14 -0.6228269141272142 0.0
VECTORS velocity double
0.0 0.0 0.0
0.0 0.0 0.0
0.0 -12.785384355468803 0.0
0.0 -12.785384355467535 0.0
6.048562978776857e-14 0.0 0.0
0.0 -1.064658241956366 0.0
0.0 -1.9648043672614337 0.0
0.0 -2.6532279098781384 0.0
0.0 -3.190897307070407 0.0
0.0 -3.8072616415114116 0.0
0.0 -4.719938922055924 0.0
0.0 -5.980107979213036 0.0
0.0 -7.6142609812641435 0.0
0.0 -9.436396417849625 0.0
0.0 -11.243631999077952 0.0
0.0 -12.763967981564775 0.0
0.0 -13.943273371407848 0.0
0.0 -14.665972970386612 0.0
0.0 -14.968622153771259 0.0
0.0 -14.88489997550887 0.0
0.0 -14.577315721331223 0.0
0.0 -13.99120790540368 0.0
0.0 -13.392754256039616 0.0
0.0 -12.95538853766065 0.0
2.857676860105985e-13 -12.771414594842902 0.0
0.0 -12.955388537658923 0.0
0.0 -13.392754256035921 0.0
0.0 -13.991207905400284 0.0
0.0 -14.577315721328326 0.0
0.0 -14.884899975506869 0.0
0.0 -14.968622153771193 0.0
0.0 -14.665972970392124 0.0
0.0 -13.943273371419059 0.0
0.0 -12.763967981583473 0.0
0.0 -11.243631999103957 0.0
0.0 -9.43639641788106 0.0
0.0 -7.614260981294333 0.0
0.0 -5.980107979234692 0.0
0.0 -4.719938922070358 0.0
0.0 -3.8072616415174534 0.0
0.0 -3.1908973070732136 0.0
0.0 -2.6532279098806093 0.0
0.0 -1.9648043672635978 0.0
0.0 -1.0646582419576476 0.0
8.823258566995215e-14 -1.064876128166267 0.0
1.6210739983027698e-13 -1.9966649157781902 0.0
-3.4146712112788164e-13 -2.6420543467511437 0.0
-2.3434040623762887e-13 -3.1912143588501847 0.0
4.216024459572169e-13 -3.765629628520406 0.0
2.103742140880704e-13 -4.680596375214554 0.0
-4.3089097176110363e-13 -6.0258211807298805 0.0
-1.6074767527124892e-13 -7.632855122564166 0.0
4.79298369843548e-13 -9.442806861589538 0.0
-8.855481165486251e-13 -11.255406751252966 0.0
1.697493030163863e-13 -12.797527818746747 0.0
6.834067608364855e-13 -13.945703163931775 0.0
4.1405996264105505e-14 -14.673430210653292 0.0
1.8847863564896703e-13 -14.966021185110577 0.0
-3.1793052902131425e-14 -14.882227844596656 0.0
1.6661952700322544e-14 -14.566744986842949 0.0
-7.5248689364374e-13 -13.980303373588782 0.0
-2.744166552950128e-13 -13.379677753432741 0.0
-1.1110638875463311e-13 -12.940914396499767 0.0
VECTORS boundary_conditions double
1.0 1.0 0.0
1.0 1.0 0.0
1.0 0.0 0.0
1.0 0.0 0.0
0.0 1.0 0.0
1.0 0.0 0.0
1.0 0.0 0.0
1.0 0.0 0.0
1.0 0.0 0.0
1.0 0.0 0.0
1.0 0.0 0.0
1.0 0.0 0.0
1.0 0.0 0.0
1.0 0.0 0.0
1.0 0.0 0.0
1.0 0.0 0.0
1.0 0.0 0.0
1.0 0.0 0.0
1.0 0.0 0.0
1.0 0.0 0.0
1.0 0.0 0.0
1.0 0.0 0.0
1.0 0.0 0.0
1.0 0.0 0.0
0.0 0.0 0.0
1.0 0.0 0.0
1.0 0.0 0.0
1.0 0.0 0.0
1.0 0.0 0.0
1.0 0.0 0.0
1.0 0.0 0.0
1.0 0.0 0.0
1.0 0.0 0.0
1.0 0.0 0.0
1.0 0.0 0.0
1.0 0.0 0.0
1.0 0.0 0.0
1.0 0.0 0.0
1.0 0.0 0.0
1.0 0.0 0.0
1.0 0.0 0.0
1.0 0.0 0.0
1.0 0.0 0.0
1.0 0.0 0.0
0.0 0.0 0.0
0.0 0.0 0.0
0.0 0.0 0.0
0.0 0.0 0.0
0.0 0.0 0.0
0.0 0.0 0.0
0.0 0.0 0.0
0.0 0.0 0.0
0.0 0.0 0.0
0.0 0.0 0.0
0.0 0.0 0.0
0.0 0.0 0.0
0.0 0.0 0.0
0.0 0.0 0.0
0.0 0.0 0.0
0.0 0.0 0.0
0.0 0.0 0.0
0.0 0.0 0.0
0.0 0.0 0.0
CELL_DATA 40
SCALARS material_index double
LOOKUP_TABLE default
1.0
1.0
1.0
1.0
1.0
1.0
1.0
1.0
1.0
1.0
1.0
1.0
1.0
1.0
1.0
1.0
1.0
1.0
1.0
1.0
1.0
1.0
1.0
1.0
1.0
1.0
1.0
1.0
1.0
1.0
1.0
1.0
1.0
1.0
1.0
1.0
1.0
1.0
1.0
1.0
SCALARS material_prop_density double
LOOKUP_TABLE default
1500.0
1500.0
1500.0
1500.0
1500.0
1500.0
1500.0
1500.0
1500.0
1500.0
1500.0
1500.0
1500.0
1500.0
1500.0
1500.0
1500.0
1500.0
1500.0
1500.0
1500.0
1500.0
1500.0
1500.0
1500.0
1500.0
1500.0
1500.0
1500.0
1500.0
1500.0
1500.0
1500.0
1500.0
1500.0
1500.0
1500.0
1500.0
1500.0
1500.0
SCALARS material_prop_Young double
LOOKUP_TABLE default
30000000.0
30000000.0
30000000.0
30000000.0
30000000.0
30000000.0
30000000.0
30000000.0
30000000.0
30000000.0
30000000.0
30000000.0
30000000.0
30000000.0
30000000.0
30000000.0
30000000.0
30000000.0
30000000.0
30000000.0
30000000.0
30000000.0
30000000.0
30000000.0
30000000.0
30000000.0
30000000.0
30000000.0
30000000.0
30000000.0
30000000.0
30000000.0
30000000.0
30000000.0
30000000.0
30000000.0
30000000.0
30000000.0
30000000.0
30000000.0
SCALARS material_prop_poisson double
LOOKUP_TABLE default
0.2
0.2
0.2
0.2
0.2
0.2
0.2
0.2
0.2
0.2
0.2
0.2
0.2
0.2
0.2
0.2
0.2
0.2
0.2
0.2
0.2
0.2
0.2
0.2
0.2
0.2
0.2
0.2
0.2
0.2
0.2
0.2
0.2
0.2
0.2
0.2
0.2
0.2
0.2
0.2
