# vtk DataFile Version 2.0
data_66
ASCII
DATASET UNSTRUCTURED_GRID
POINTS 63 float
0.0 0.0 0.0
1.0 0.0 0.0
1.0 10.0 0.0
0.0 10.0 0.0
0.4999999999986921 0.0 0.0
1.0 0.499999999999551 0.0
1.0 0.9999999999991888 0.0
1.0 1.499999999998284 0.0
1.0 1.999999999996824 0.0
1.0 2.499999999995364 0.0
1.0 2.999999999993903 0.0
1.0 3.499999999992442 0.0
1.0 3.999999999991017 0.0
1.0 4.499999999991639 0.0
1.0 4.999999999992399 0.0
1.0 5.499999999993159 0.0
1.0 5.99999999999392 0.0
1.0 6.499999999994679 0.0
1.0 6.999999999995438 0.0
1.0 7.499999999996199 0.0
1.0 7.99999999999696 0.0
1.0 8.49999999999772 0.0
1.0 8.99999999999848 0.0
1.0 9.49999999999924 0.0
0.5000000000020595 10.0 0.0
0.0 9.5 0.0
0.0 8.999999999999998 0.0
0.0 8.499999999999998 0.0
0.0 7.999999999999996 0.0
0.0 7.499999999999995 0.0
0.0 6.999999999999995 0.0
0.0 6.499999999999996 0.0
0.0 5.999999999999996 0.0
0.0 5.499999999999996 0.0
0.0 4.999999999999996 0.0
0.0 4.499999999999997 0.0
0.0 3.999999999999996 0.0
0.0 3.499999999999997 0.0
0.0 2.999999999999998 0.0
0.0 2.499999999999998 0.0
0.0 1.999999999999998 0.0
0.0 1.5 0.0
0.0 0.9999999999999982 0.0
0.0 0.5 0.0
0.4999999999988605 0.4999999999997756 0.0
0.4999999999990288 0.9999999999995937 0.0
0.4999999999991972 1.499999999999142 0.0
0.4999999999993656 1.999999999998411 0.0
0.499999999999534 2.499999999997681 0.0
0.4999999999997023 2.999999999996951 0.0
0.4999999999998707 3.49999999999622 0.0
0.5000000000000391 3.999999999995507 0.0
0.5000000000002074 4.499999999995817 0.0
0.5000000000003758 4.999999999996198 0.0
0.5000000000005441 5.499999999996577 0.0
0.5000000000007125 5.999999999996958 0.0
0.500000000000881 6.499999999997339 0.0
0.5000000000010493 6.999999999997716 0.0
0.5000000000012177 7.499999999998098 0.0
0.500000000001386 7.999999999998479 0.0
0.5000000000015543 8.499999999998856 0.0
0.5000000000017226 8.99999999999924 0.0
0.5000000000018909 9.49999999999962 0.0
CELLS 40 200
4 0 4 44 43
4 43 44 45 42
4 42 45 46 41
4 41 46 47 40
4 40 47 48 39
4 39 48 49 38
4 38 49 50 37
4 37 50 51 36
4 36 51 52 35
4 35 52 53 34
4 34 53 54 33
4 33 54 55 32
4 32 55 56 31
4 31 56 57 30
4 30 57 58 29
4 29 58 59 28
4 28 59 60 27
4 27 60 61 26
4 26 61 62 25
4 25 62 24 3
4 4 1 5 44
4 44 5 6 45
4 45 6 7 46
4 46 7 8 47
4 47 8 9 48
4 48 9 10 49
4 49 10 11 50
4 50 11 12 51
4 51 12 13 52
4 52 13 14 53
4 53 14 15 54
4 54 15 16 55
4 55 16 17 56
4 56 17 18 57
4 57 18 19 58
4 58 19 20 59
4 59 20 21 60
4 60 21 22 61
4 61 22 23 62
4 62 23 2 24
CELL_TYPES 40
9
9
9
9
9
9
9
9
9
9
9
9
9
9
9
9
9
9
9
9
9
9
9
9
9
9
9
9
9
9
9
9
9
9
9
9
9
9
9
9
POINT_DATA 63
VECTORS displacement double
0.0 0.0 0.0
0.0 0.0 0.0
0.0 -0.7075618445529627 0.0
0.0 -0.7075618445525024 0.0
-9.301823670315967e-16 0.0 0.0
0.0 -0.008355755135128156 0.0
0.0 -0.017566477743736965 0.0
0.0 -0.028117273550823194 0.0
0.0 -0.04167791892140545 0.0
0.0 -0.05918007051583467 0.0
0.0 -0.0813374474293124 0.0
0.0 -0.10889620921490664 0.0
0.0 -0.1418211058138514 0.0
0.0 -0.17961815440261872 0.0
0.0 -0.22254221199801844 0.0
0.0 -0.27012822771507966 0.0
0.0 -0.3210034328501448 0.0
0.0 -0.37388018788704896 0.0
0.0 -0.42595276891879724 0.0
0.0 -0.4756622211348795 0.0
0.0 -0.5216803237394745 0.0
0.0 -0.5642077225573777 0.0
0.0 -0.6046392360332788 0.0
0.0 -0.6467845750880453 0.0
3.641526408326139e-14 -0.6714951457219491 0.0
0.0 -0.6467845750880088 0.0
0.0 -0.6046392360333825 0.0
0.0 -0.5642077225575616 0.0
0.0 -0.521680323739745 0.0
0.0 -0.47566222113524015 0.0
0.0 -0.4259527689192587 0.0
0.0 -0.37388018788761357 0.0
0.0 -0.32100343285078015 0.0
0.0 -0.2701282277157505 0.0
0.0 -0.22254221199871022 0.0
0.0 -0.1796181544032944 0.0
0.0 -0.14182110581448595 0.0
0.0 -0.10889620921536358 0.0
0.0 -0.08133744742961739 0.0
0.0 -0.05918007051601617 0.0
0.0 -0.04167791892150224 0.0
0.0 -0.028117273550861806 0.0
0.0 -0.017566477743751238 0.0
0.0 -0.008355755135137463 0.0
7.643179678988325e-16 -0.008337850861578703 0.0
-5.1258911248573815e-18 -0.017549433434415757 0.0
-3.0329755911005344e-16 -0.02818973158595587 0.0
5.171009802871911e-16 -0.041690230820026986 0.0
6.214584832581571e-16 -0.059002567243157084 0.0
-1.011985706120278e-16 -0.0813692518101982 0.0
-1.3346572851603943e-15 -0.10911305104139857 0.0
6.827713386196515e-16 -0.14181337705499122 0.0
1.6812153669647412e-16 -0.1795655515770229 0.0
-1.5156871091989965e-15 -0.2223975849346737 0.0
-1.1371581302211984e-15 -0.27000228846712554 0.0
2.6955835157118098e-15 -0.321021804710248 0.0
-1.652290161996975e-15 -0.37390107234175285 0.0
-1.018197924914135e-15 -0.4261125719524574 0.0
2.251823759040291e-15 -0.4757583856837346 0.0
5.349738712351686e-16 -0.5218498679415198 0.0
-2.7459893331243065e-15 -0.5642919838893873 0.0
-6.156950412944095e-15 -0.6046811346704022 0.0
-3.730643733583872e-14 -0.6450393962959049 0.0
VECTORS velocity double
0.0 0.0 0.0
0.0 0.0 0.0
0.0 -12.129559129238878 0.0
0.0 -12.129559129239286 0.0
-8.247366699726519e-13 0.0 0.0
0.0 -0.9038909146286015 0.0
0.0 -1.76793314843164 0.0
0.0 -2.941779364923847 0.0
0.0 -4.103811858190903 0.0
0.0 -5.400604793882376 0.0
0.0 -6.878794844960033 0.0
0.0 -8.604655146330236 0.0
0.0 -10.622423534058505 0.0
0.0 -12.276101874087784 0.0
0.0 -13.769989124873902 0.0
0.0 -14.676912912391177 0.0
0.0 -15.010416939500534 0.0
0.0 -14.870059866335103 0.0
0.0 -14.723226688089404 0.0
0.0 -14.400080537111677 0.0
0.0 -13.75580560836731 0.0
0.0 -13.292501774891573 0.0
0.0 -12.762969743939527 0.0
0.0 -12.412147836817354 0.0
8.510866612625448e-13 -12.098221799409654 0.0
0.0 -12.412147836812597 0.0
0.0 -12.762969743935967 0.0
0.0 -13.292501774888043 0.0
0.0 -13.755805608365348 0.0
0.0 -14.400080537104712 0.0
0.0 -14.723226688089406 0.0
0.0 -14.870059866334199 0.0
0.0 -15.010416939498654 0.0
0.0 -14.67691291239904 0.0
0.0 -13.769989124895853 0.0
0.0 -12.276101874110925 0.0
0.0 -10.622423534091354 0.0
0.0 -8.604655146358823 0.0
0.0 -6.878794844978167 0.0
0.0 -5.400604793897162 0.0
0.0 -4.103811858198656 0.0
0.0 -2.941779364927588 0.0
0.0 -1.7679331484347849 0.0
0.0 -0.9038909146299916 0.0
1.0217015477737228e-12 -0.8859529951331946 0.0
-7.544280329700933e-13 -1.797183487287096 0.0
6.583937005476054e-13 -2.968495134046243 0.0
-5.475538768380491e-13 -3.9993610242301427 0.0
-2.6968185467644194e-14 -5.3987788116576905 0.0
5.745074361051455e-15 -7.064166051777724 0.0
-2.3055340781244786e-14 -8.555399048811285 0.0
-4.636438801286601e-13 -10.505289514768702 0.0
5.393564745511547e-13 -12.247539096986408 0.0
1.963678007646233e-13 -13.709219332023872 0.0
-1.1316100153377815e-12 -14.796452115758294 0.0
8.464559034438934e-13 -15.065566219162104 0.0
9.67087774020953e-13 -14.968411869431254 0.0
-1.472779498124557e-12 -14.766904765885505 0.0
2.4139755564477295e-13 -14.397518755994815 0.0
1.3420510770658167e-12 -13.75488859313241 0.0
-1.0774751296928171e-12 -13.220248241029937 0.0
-8.88875322499443e-13 -12.737730172359218 0.0
7.234810625218746e-13 -12.312965645019808 0.0
VECTORS boundary_conditions double
1.0 1.0 0.0
1.0 1.0 0.0
1.0 0.0 0.0
1.0 0.0 0.0
0.0 1.0 0.0
1.0 0.0 0.0
1.0 0.0 0.0
1.0 0.0 0.0
1.0 0.0 0.0
1.0 0.0 0.0
1.0 0.0 0.0
1.0 0.0 0.0
1.0 0.0 0.0
1.0 0.0 0.0
1.0 0.0 0.0
1.0 0.0 0.0
1.0 0.0 0.0
1.0 0.0 0.0
1.0 0.0 0.0
1.0 0.0 0.0
1.0 0.0 0.0
1.0 0.0 0.0
1.0 0.0 0.0
1.0 0.0 0.0
0.0 0.0 0.0
1.0 0.0 0.0
1.0 0.0 0.0
1.0 0.0 0.0
1.0 0.0 0.0
1.0 0.0 0.0
1.0 0.0 0.0
1.0 0.0 0.0
1.0 0.0 0.0
1.0 0.0 0.0
1.0 0.0 0.0
1.0 0.0 0.0
1.0 0.0 0.0
1.0 0.0 0.0
1.0 0.0 0.0
1.0 0.0 0.0
1.0 0.0 0.0
1.0 0.0 0.0
1.0 0.0 0.0
1.0 0.0 0.0
0.0 0.0 0.0
0.0 0.0 0.0
0.0 0.0 0.0
0.0 0.0 0.0
0.0 0.0 0.0
0.0 0.0 0.0
0.0 0.0 0.0
0.0 0.0 0.0
0.0 0.0 0.0
0.0 0.0 0.0
0.0 0.0 0.0
0.0 0.0 0.0
0.0 0.0 0.0
0.0 0.0 0.0
0.0 0.0 0.0
0.0 0.0 0.0
0.0 0.0 0.0
0.0 0.0 0.0
0.0 0.0 0.0
CELL_DATA 40
SCALARS material_index double
LOOKUP_TABLE default
1.0
1.0
1.0
1.0
1.0
1.0
1.0
1.0
1.0
1.0
1.0
1.0
1.0
1.0
1.0
1.0
1.0
1.0
1.0
1.0
1.0
1.0
1.0
1.0
1.0
1.0
1.0
1.0
1.0
1.0
1.0
1.0
1.0
1.0
1.0
1.0
1.0
1.0
1.0
1.0
SCALARS material_prop_density double
LOOKUP_TABLE default
1500.0
1500.0
1500.0
1500.0
1500.0
1500.0
1500.0
1500.0
1500.0
1500.0
1500.0
1500.0
1500.0
1500.0
1500.0
1500.0
1500.0
1500.0
1500.0
1500.0
1500.0
1500.0
1500.0
1500.0
1500.0
1500.0
1500.0
1500.0
1500.0
1500.0
1500.0
1500.0
1500.0
1500.0
1500.0
1500.0
1500.0
1500.0
1500.0
1500.0
SCALARS material_prop_Young double
LOOKUP_TABLE default
30000000.0
30000000.0
30000000.0
30000000.0
30000000.0
30000000.0
30000000.0
30000000.0
30000000.0
30000000.0
30000000.0
30000000.0
30000000.0
30000000.0
30000000.0
30000000.0
30000000.0
30000000.0
30000000.0
30000000.0
30000000.0
30000000.0
30000000.0
30000000.0
30000000.0
30000000.0
30000000.0
30000000.0
30000000.0
30000000.0
30000000.0
30000000.0
30000000.0
30000000.0
30000000.0
30000000.0
30000000.0
30000000.0
30000000.0
30000000.0
SCALARS material_prop_poisson double
LOOKUP_TABLE default
0.2
0.2
0.2
0.2
0.2
0.2
0.2
0.2
0.2
0.2
0.2
0.2
0.2
0.2
0.2
0.2
0.2
0.2
0.2
0.2
0.2
0.2
0.2
0.2
0.2
0.2
0.2
0.2
0.2
0.2
0.2
0.2
0.2
0.2
0.2
0.2
0.2
0.2
0.2
0.2
