# vtk DataFile Version 2.0
data_185
ASCII
DATASET UNSTRUCTURED_GRID
POINTS 63 float
0.0 0.0 0.0
1.0 0.0 0.0
1.0 10.0 0.0
0.0 10.0 0.0
0.4999999999986921 0.0 0.0
1.0 0.499999999999551 0.0
1.0 0.9999999999991888 0.0
1.0 1.499999999998284 0.0
1.0 1.999999999996824 0.0
1.0 2.499999999995364 0.0
1.0 2.999999999993903 0.0
1.0 3.499999999992442 0.0
1.0 3.999999999991017 0.0
1.0 4.499999999991639 0.0
1.0 4.999999999992399 0.0
1.0 5.499999999993159 0.0
1.0 5.99999999999392 0.0
1.0 6.499999999994679 0.0
1.0 6.999999999995438 0.0
1.0 7.499999999996199 0.0
1.0 7.99999999999696 0.0
1.0 8.49999999999772 0.0
1.0 8.99999999999848 0.0
1.0 9.49999999999924 0.0
0.5000000000020595 10.0 0.0
0.0 9.5 0.0
0.0 8.999999999999998 0.0
0.0 8.499999999999998 0.0
0.0 7.999999999999996 0.0
0.0 7.499999999999995 0.0
0.0 6.999999999999995 0.0
0.0 6.499999999999996 0.0
0.0 5.999999999999996 0.0
0.0 5.499999999999996 0.0
0.0 4.999999999999996 0.0
0.0 4.499999999999997 0.0
0.0 3.999999999999996 0.0
0.0 3.499999999999997 0.0
0.0 2.999999999999998 0.0
0.0 2.499999999999998 0.0
0.0 1.999999999999998 0.0
0.0 1.5 0.0
0.0 0.9999999999999982 0.0
0.0 0.5 0.0
0.4999999999988605 0.4999999999997756 0.0
0.4999999999990288 0.9999999999995937 0.0
0.4999999999991972 1.499999999999142 0.0
0.4999999999993656 1.999999999998411 0.0
0.499999999999534 2.499999999997681 0.0
0.4999999999997023 2.999999999996951 0.0
0.4999999999998707 3.49999999999622 0.0
0.5000000000000391 3.999999999995507 0.0
0.5000000000002074 4.499999999995817 0.0
0.5000000000003758 4.999999999996198 0.0
0.5000000000005441 5.499999999996577 0.0
0.5000000000007125 5.999999999996958 0.0
0.500000000000881 6.499999999997339 0.0
0.5000000000010493 6.999999999997716 0.0
0.5000000000012177 7.499999999998098 0.0
0.500000000001386 7.999999999998479 0.0
0.5000000000015543 8.499999999998856 0.0
0.5000000000017226 8.99999999999924 0.0
0.5000000000018909 9.49999999999962 0.0
CELLS 40 200
4 0 4 44 43
4 43 44 45 42
4 42 45 46 41
4 41 46 47 40
4 40 47 48 39
4 39 48 49 38
4 38 49 50 37
4 37 50 51 36
4 36 51 52 35
4 35 52 53 34
4 34 53 54 33
4 33 54 55 32
4 32 55 56 31
4 31 56 57 30
4 30 57 58 29
4 29 58 59 28
4 28 59 60 27
4 27 60 61 26
4 26 61 62 25
4 25 62 24 3
4 4 1 5 44
4 44 5 6 45
4 45 6 7 46
4 46 7 8 47
4 47 8 9 48
4 48 9 10 49
4 49 10 11 50
4 50 11 12 51
4 51 12 13 52
4 52 13 14 53
4 53 14 15 54
4 54 15 16 55
4 55 16 17 56
4 56 17 18 57
4 57 18 19 58
4 58 19 20 59
4 59 20 21 60
4 60 21 22 61
4 61 22 23 62
4 62 23 2 24
CELL_TYPES 40
9
9
9
9
9
9
9
9
9
9
9
9
9
9
9
9
9
9
9
9
9
9
9
9
9
9
9
9
9
9
9
9
9
9
9
9
9
9
9
9
POINT_DATA 63
VECTORS displacement double
0.0 0.0 0.0
0.0 0.0 0.0
0.0 -1.4582791651855942 0.0
0.0 -1.4582791651851361 0.0
2.919255670839674e-16 0.0 0.0
0.0 -0.10254253859506758 0.0
0.0 -0.20343137447720672 0.0
0.0 -0.30127353415319447 0.0
0.0 -0.39513822426661005 0.0
0.0 -0.48461061189167226 0.0
0.0 -0.5697913627687843 0.0
0.0 -0.6510687737447668 0.0
0.0 -0.7289533170690896 0.0
0.0 -0.8037824654359129 0.0
0.0 -0.8757505797022651 0.0
0.0 -0.9449233795917257 0.0
0.0 -1.0113043541300215 0.0
0.0 -1.0748296693105701 0.0
0.0 -1.1353784885647522 0.0
0.0 -1.1928223726913068 0.0
0.0 -1.2471583317733566 0.0
0.0 -1.2985942828112158 0.0
0.0 -1.3476059399958444 0.0
0.0 -1.39549599680961 0.0
3.627450040151444e-14 -1.4221093435103824 0.0
0.0 -1.3954959968095844 0.0
0.0 -1.3476059399959777 0.0
0.0 -1.2985942828114436 0.0
0.0 -1.2471583317736787 0.0
0.0 -1.192822372691731 0.0
0.0 -1.1353784885652913 0.0
0.0 -1.074829669311231 0.0
0.0 -1.011304354130811 0.0
0.0 -0.9449233795926533 0.0
0.0 -0.8757505797033379 0.0
0.0 -0.8037824654371388 0.0
0.0 -0.7289533170704611 0.0
0.0 -0.6510687737459707 0.0
0.0 -0.5697913627698012 0.0
0.0 -0.48461061189248394 0.0
0.0 -0.39513822426719414 0.0
0.0 -0.30127353415352476 0.0
0.0 -0.20343137447736864 0.0
0.0 -0.10254253859515992 0.0
7.90064097999149e-17 -0.10253919864403666 0.0
-3.6973094357507874e-16 -0.2034231163521142 0.0
-9.126059144534899e-17 -0.30126667594964235 0.0
3.257419880529245e-16 -0.39512944883147644 0.0
-9.460232819622736e-17 -0.4846089880451304 0.0
-2.3288100603648357e-16 -0.5697930977042405 0.0
9.61738114727603e-17 -0.6510777211023346 0.0
1.2935316376192617e-16 -0.7289648676444456 0.0
2.2366192246435736e-16 -0.8037926996903938 0.0
6.393595710529017e-16 -0.8757563457628624 0.0
-6.497910720040488e-17 -0.9449229975947753 0.0
-3.2913927802112806e-16 -1.0113033676444902 0.0
-1.9736799352344815e-16 -1.074833569756327 0.0
-2.450810857141247e-16 -1.135379072949931 0.0
-2.1211890454097883e-16 -1.1928300873462632 0.0
2.682226856826171e-16 -1.2471648032837248 0.0
-4.588134513959181e-16 -1.2985836983359795 0.0
-5.999647189759695e-15 -1.347503315155634 0.0
-3.811798508409272e-14 -1.393683750451883 0.0
VECTORS velocity double
0.0 0.0 0.0
0.0 0.0 0.0
0.0 -10.332437635221975 0.0
0.0 -10.332437635221869 0.0
-3.238206834950696e-13 0.0 0.0
0.0 0.7171926360418304 0.0
0.0 1.264712843350266 0.0
0.0 1.5113469995288638 0.0
0.0 1.4095485865428028 0.0
0.0 0.9614653320364743 0.0
0.0 0.2640246046954342 0.0
0.0 -0.6217743547545993 0.0
0.0 -1.7125662308041942 0.0
0.0 -3.000263327515407 0.0
0.0 -4.465501144599102 0.0
0.0 -6.064688509260728 0.0
0.0 -7.658991346313746 0.0
0.0 -9.053316753497477 0.0
0.0 -10.08886950696336 0.0
0.0 -10.689676847107355 0.0
0.0 -10.893921060816613 0.0
0.0 -10.811915691872136 0.0
0.0 -10.589721113763716 0.0
0.0 -10.391505995518695 0.0
-1.167350020029291e-13 -10.3220015859965 0.0
0.0 -10.391505995518497 0.0
0.0 -10.58972111376276 0.0
0.0 -10.811915691870944 0.0
0.0 -10.893921060816442 0.0
0.0 -10.689676847109961 0.0
0.0 -10.08886950697034 0.0
0.0 -9.053316753510376 0.0
0.0 -7.658991346332364 0.0
0.0 -6.064688509282512 0.0
0.0 -4.465501144622058 0.0
0.0 -3.000263327538887 0.0
0.0 -1.7125662308263934 0.0
0.0 -0.6217743547692507 0.0
0.0 0.26402460468632505 0.0
0.0 0.961465332031259 0.0
0.0 1.4095485865408923 0.0
0.0 1.511346999528687 0.0
0.0 1.2647128433505843 0.0
0.0 0.7171926360426517 0.0
5.967985538570107e-14 0.7143525364749506 0.0
1.3920029248022843e-13 1.258452731945901 0.0
-1.2126712125200335e-14 1.5071427804853057 0.0
-7.012792019686831e-14 1.4040753378618742 0.0
-8.73968541024475e-15 0.9620013528051663 0.0
7.125047019434442e-14 0.26301978201350096 0.0
2.2340673107090402e-13 -0.6191766973685731 0.0
3.341542414871471e-14 -1.713745701532181 0.0
-9.754426765489632e-14 -3.002468921993138 0.0
-1.1911635566590983e-13 -4.466383232179323 0.0
-2.622269921916453e-13 -6.067122360432778 0.0
-9.678347243096834e-14 -7.653598096573006 0.0
7.398671783011746e-14 -9.04668645533603 0.0
1.0584826914917837e-13 -10.07969147921662 0.0
2.285640064203525e-13 -10.690643306832074 0.0
1.7082968015001872e-14 -10.894742850559965 0.0
3.4773051910777326e-14 -10.803759479492108 0.0
6.961654947883854e-14 -10.585989106000824 0.0
-7.919468068768668e-14 -10.391609949797218 0.0
VECTORS boundary_conditions double
1.0 1.0 0.0
1.0 1.0 0.0
1.0 0.0 0.0
1.0 0.0 0.0
0.0 1.0 0.0
1.0 0.0 0.0
1.0 0.0 0.0
1.0 0.0 0.0
1.0 0.0 0.0
1.0 0.0 0.0
1.0 0.0 0.0
1.0 0.0 0.0
1.0 0.0 0.0
1.0 0.0 0.0
1.0 0.0 0.0
1.0 0.0 0.0
1.0 0.0 0.0
1.0 0.0 0.0
1.0 0.0 0.0
1.0 0.0 0.0
1.0 0.0 0.0
1.0 0.0 0.0
1.0 0.0 0.0
1.0 0.0 0.0
0.0 0.0 0.0
1.0 0.0 0.0
1.0 0.0 0.0
1.0 0.0 0.0
1.0 0.0 0.0
1.0 0.0 0.0
1.0 0.0 0.0
1.0 0.0 0.0
1.0 0.0 0.0
1.0 0.0 0.0
1.0 0.0 0.0
1.0 0.0 0.0
1.0 0.0 0.0
1.0 0.0 0.0
1.0 0.0 0.0
1.0 0.0 0.0
1.0 0.0 0.0
1.0 0.0 0.0
1.0 0.0 0.0
1.0 0.0 0.0
0.0 0.0 0.0
0.0 0.0 0.0
0.0 0.0 0.0
0.0 0.0 0.0
0.0 0.0 0.0
0.0 0.0 0.0
0.0 0.0 0.0
0.0 0.0 0.0
0.0 0.0 0.0
0.0 0.0 0.0
0.0 0.0 0.0
0.0 0.0 0.0
0.0 0.0 0.0
0.0 0.0 0.0
0.0 0.0 0.0
0.0 0.0 0.0
0.0 0.0 0.0
0.0 0.0 0.0
0.0 0.0 0.0
CELL_DATA 40
SCALARS material_index double
LOOKUP_TABLE default
1.0
1.0
1.0
1.0
1.0
1.0
1.0
1.0
1.0
1.0
1.0
1.0
1.0
1.0
1.0
1.0
1.0
1.0
1.0
1.0
1.0
1.0
1.0
1.0
1.0
1.0
1.0
1.0
1.0
1.0
1.0
1.0
1.0
1.0
1.0
1.0
1.0
1.0
1.0
1.0
SCALARS material_prop_density double
LOOKUP_TABLE default
1500.0
1500.0
1500.0
1500.0
1500.0
1500.0
1500.0
1500.0
1500.0
1500.0
1500.0
1500.0
1500.0
1500.0
1500.0
1500.0
1500.0
1500.0
1500.0
1500.0
1500.0
1500.0
1500.0
1500.0
1500.0
1500.0
1500.0
1500.0
1500.0
1500.0
1500.0
1500.0
1500.0
1500.0
1500.0
1500.0
1500.0
1500.0
1500.0
1500.0
SCALARS material_prop_Young double
LOOKUP_TABLE default
30000000.0
30000000.0
30000000.0
30000000.0
30000000.0
30000000.0
30000000.0
30000000.0
30000000.0
30000000.0
30000000.0
30000000.0
30000000.0
30000000.0
30000000.0
30000000.0
30000000.0
30000000.0
30000000.0
30000000.0
30000000.0
30000000.0
30000000.0
30000000.0
30000000.0
30000000.0
30000000.0
30000000.0
30000000.0
30000000.0
30000000.0
30000000.0
30000000.0
30000000.0
30000000.0
30000000.0
30000000.0
30000000.0
30000000.0
30000000.0
SCALARS material_prop_poisson double
LOOKUP_TABLE default
0.2
0.2
0.2
0.2
0.2
0.2
0.2
0.2
0.2
0.2
0.2
0.2
0.2
0.2
0.2
0.2
0.2
0.2
0.2
0.2
0.2
0.2
0.2
0.2
0.2
0.2
0.2
0.2
0.2
0.2
0.2
0.2
0.2
0.2
0.2
0.2
0.2
0.2
0.2
0.2
