# vtk DataFile Version 2.0
data_145
ASCII
DATASET UNSTRUCTURED_GRID
POINTS 63 float
0.0 0.0 0.0
1.0 0.0 0.0
1.0 10.0 0.0
0.0 10.0 0.0
0.4999999999986921 0.0 0.0
1.0 0.499999999999551 0.0
1.0 0.9999999999991888 0.0
1.0 1.499999999998284 0.0
1.0 1.999999999996824 0.0
1.0 2.499999999995364 0.0
1.0 2.999999999993903 0.0
1.0 3.499999999992442 0.0
1.0 3.999999999991017 0.0
1.0 4.499999999991639 0.0
1.0 4.999999999992399 0.0
1.0 5.499999999993159 0.0
1.0 5.99999999999392 0.0
1.0 6.499999999994679 0.0
1.0 6.999999999995438 0.0
1.0 7.499999999996199 0.0
1.0 7.99999999999696 0.0
1.0 8.49999999999772 0.0
1.0 8.99999999999848 0.0
1.0 9.49999999999924 0.0
0.5000000000020595 10.0 0.0
0.0 9.5 0.0
0.0 8.999999999999998 0.0
0.0 8.499999999999998 0.0
0.0 7.999999999999996 0.0
0.0 7.499999999999995 0.0
0.0 6.999999999999995 0.0
0.0 6.499999999999996 0.0
0.0 5.999999999999996 0.0
0.0 5.499999999999996 0.0
0.0 4.999999999999996 0.0
0.0 4.499999999999997 0.0
0.0 3.999999999999996 0.0
0.0 3.499999999999997 0.0
0.0 2.999999999999998 0.0
0.0 2.499999999999998 0.0
0.0 1.999999999999998 0.0
0.0 1.5 0.0
0.0 0.9999999999999982 0.0
0.0 0.5 0.0
0.4999999999988605 0.4999999999997756 0.0
0.4999999999990288 0.9999999999995937 0.0
0.4999999999991972 1.499999999999142 0.0
0.4999999999993656 1.999999999998411 0.0
0.499999999999534 2.499999999997681 0.0
0.4999999999997023 2.999999999996951 0.0
0.4999999999998707 3.49999999999622 0.0
0.5000000000000391 3.999999999995507 0.0
0.5000000000002074 4.499999999995817 0.0
0.5000000000003758 4.999999999996198 0.0
0.5000000000005441 5.499999999996577 0.0
0.5000000000007125 5.999999999996958 0.0
0.500000000000881 6.499999999997339 0.0
0.5000000000010493 6.999999999997716 0.0
0.5000000000012177 7.499999999998098 0.0
0.500000000001386 7.999999999998479 0.0
0.5000000000015543 8.499999999998856 0.0
0.5000000000017226 8.99999999999924 0.0
0.5000000000018909 9.49999999999962 0.0
CELLS 40 200
4 0 4 44 43
4 43 44 45 42
4 42 45 46 41
4 41 46 47 40
4 40 47 48 39
4 39 48 49 38
4 38 49 50 37
4 37 50 51 36
4 36 51 52 35
4 35 52 53 34
4 34 53 54 33
4 33 54 55 32
4 32 55 56 31
4 31 56 57 30
4 30 57 58 29
4 29 58 59 28
4 28 59 60 27
4 27 60 61 26
4 26 61 62 25
4 25 62 24 3
4 4 1 5 44
4 44 5 6 45
4 45 6 7 46
4 46 7 8 47
4 47 8 9 48
4 48 9 10 49
4 49 10 11 50
4 50 11 12 51
4 51 12 13 52
4 52 13 14 53
4 53 14 15 54
4 54 15 16 55
4 55 16 17 56
4 56 17 18 57
4 57 18 19 58
4 58 19 20 59
4 59 20 21 60
4 60 21 22 61
4 61 22 23 62
4 62 23 2 24
CELL_TYPES 40
9
9
9
9
9
9
9
9
9
9
9
9
9
9
9
9
9
9
9
9
9
9
9
9
9
9
9
9
9
9
9
9
9
9
9
9
9
9
9
9
POINT_DATA 63
VECTORS displacement double
0.0 0.0 0.0
0.0 0.0 0.0
0.0 -1.2089111073268537 0.0
0.0 -1.2089111073263836 0.0
5.9131849027878925e-16 0.0 0.0
0.0 -0.08427557979690639 0.0
0.0 -0.16751239398222864 0.0
0.0 -0.248880859451362 0.0
0.0 -0.3281220816027638 0.0
0.0 -0.4053709107934986 0.0
0.0 -0.48075984953339596 0.0
0.0 -0.5543274590964845 0.0
0.0 -0.6257075246238416 0.0
0.0 -0.6941533470916535 0.0
0.0 -0.758750238698913 0.0
0.0 -0.8183101375696448 0.0
0.0 -0.8720088149120153 0.0
0.0 -0.9195700785908798 0.0
0.0 -0.9614781508447481 0.0
0.0 -0.999254305384063 0.0
0.0 -1.0349205343350223 0.0
0.0 -1.0704938108888882 0.0
0.0 -1.107666288820647 0.0
0.0 -1.148447958894578 0.0
3.9836169160252637e-14 -1.1727101919775906 0.0
0.0 -1.1484479588945369 0.0
0.0 -1.1076662888207478 0.0
0.0 -1.07049381088905 0.0
0.0 -1.034920534335235 0.0
0.0 -0.9992543053843365 0.0
0.0 -0.9614781508451052 0.0
0.0 -0.9195700785913499 0.0
0.0 -0.8720088149126263 0.0
0.0 -0.8183101375704179 0.0
0.0 -0.7587502386998575 0.0
0.0 -0.6941533470927697 0.0
0.0 -0.6257075246251022 0.0
0.0 -0.5543274590975834 0.0
0.0 -0.48075984953430373 0.0
0.0 -0.4053709107942056 0.0
0.0 -0.3281220816032607 0.0
0.0 -0.24888085945163818 0.0
0.0 -0.16751239398236287 0.0
0.0 -0.08427557979698327 0.0
2.0128221988219847e-16 -0.08425443918080817 0.0
-3.090537283084743e-16 -0.16748436940905587 0.0
-3.478256959275187e-16 -0.24885232080479094 0.0
-2.600848310320029e-16 -0.328120877894136 0.0
-3.7954571723610774e-16 -0.40538357133359193 0.0
2.407378999911674e-16 -0.4807919855316987 0.0
6.070507645692077e-16 -0.5543506389930206 0.0
5.920907702092291e-16 -0.6257085663411827 0.0
-2.306524439402448e-16 -0.6941583532510749 0.0
-3.9365104222358743e-16 -0.7587459384864927 0.0
-1.240732912699314e-16 -0.8183328983697695 0.0
-5.602084854482057e-16 -0.8720169582149466 0.0
-2.2403934399958983e-16 -0.9195461719877354 0.0
3.155759727336362e-16 -0.9614586803781477 0.0
-4.627887906348082e-16 -0.9992586022060765 0.0
-6.241751997052047e-17 -1.0349044811325334 0.0
-3.611467156103485e-16 -1.0704695878889847 0.0
-6.3643876900400076e-15 -1.107560074405381 0.0
-3.949348974215034e-14 -1.1466221300726154 0.0
VECTORS velocity double
0.0 0.0 0.0
0.0 0.0 0.0
0.0 15.824011749509019 0.0
0.0 15.824011749506678 0.0
1.3372703202316672e-13 0.0 0.0
0.0 0.10853685800147672 0.0
0.0 0.4167475343895011 0.0
0.0 1.031629137190584 0.0
0.0 1.936327870352967 0.0
0.0 3.086622784980942 0.0
0.0 4.364947226063246 0.0
0.0 5.641317736089773 0.0
0.0 6.796413409114125 0.0
0.0 7.909120666054321 0.0
0.0 9.001816613308966 0.0
0.0 10.03961460629337 0.0
0.0 11.0005567769481 0.0
0.0 11.8777055031922 0.0
0.0 12.644082241280575 0.0
0.0 13.351210201584042 0.0
0.0 14.037036266304307 0.0
0.0 14.679933517733105 0.0
0.0 15.245375386492945 0.0
0.0 15.678128979744415 0.0
-7.248585821564575e-13 15.828131303515114 0.0
0.0 15.67812897974245 0.0
0.0 15.245375386493443 0.0
0.0 14.679933517735257 0.0
0.0 14.037036266307364 0.0
0.0 13.3512102015886 0.0
0.0 12.64408224128655 0.0
0.0 11.87770550320022 0.0
0.0 11.000556776958518 0.0
0.0 10.039614606306305 0.0
0.0 9.00181661332478 0.0
0.0 7.909120666073116 0.0
0.0 6.796413409134395 0.0
0.0 5.641317736108357 0.0
0.0 4.364947226079211 0.0
0.0 3.0866227849927252 0.0
0.0 1.9363278703597064 0.0
0.0 1.0316291371938906 0.0
0.0 0.4167475343901552 0.0
0.0 0.10853685800200097 0.0
1.6326147467988718e-13 0.10639799529480021 0.0
-4.333127793202297e-13 0.4026864411897222 0.0
-1.7948675519547444e-13 1.035354003498036 0.0
1.351126488045448e-13 1.929438473908304 0.0
2.9492891242319465e-13 3.0902643653224153 0.0
2.417305418677675e-13 4.35778888586453 0.0
-3.1790259675523044e-14 5.627951121247477 0.0
-3.0570323095085066e-13 6.793811565057803 0.0
1.1127062551825473e-13 7.917601919117558 0.0
1.0324081997816576e-13 9.019830888013463 0.0
-2.640389014031239e-13 10.062431252960234 0.0
-2.3235117690507317e-14 10.995376748322382 0.0
-6.79465406880753e-14 11.8761628803976 0.0
7.257265009925029e-14 12.669543572991117 0.0
2.3545514499908434e-13 13.357432875981392 0.0
3.2436904330645294e-13 14.03589922289224 0.0
9.67376640010605e-14 14.68281250823959 0.0
3.7397214372810354e-13 15.254832637280426 0.0
-3.3008673031740494e-13 15.677167064311387 0.0
VECTORS boundary_conditions double
1.0 1.0 0.0
1.0 1.0 0.0
1.0 0.0 0.0
1.0 0.0 0.0
0.0 1.0 0.0
1.0 0.0 0.0
1.0 0.0 0.0
1.0 0.0 0.0
1.0 0.0 0.0
1.0 0.0 0.0
1.0 0.0 0.0
1.0 0.0 0.0
1.0 0.0 0.0
1.0 0.0 0.0
1.0 0.0 0.0
1.0 0.0 0.0
1.0 0.0 0.0
1.0 0.0 0.0
1.0 0.0 0.0
1.0 0.0 0.0
1.0 0.0 0.0
1.0 0.0 0.0
1.0 0.0 0.0
1.0 0.0 0.0
0.0 0.0 0.0
1.0 0.0 0.0
1.0 0.0 0.0
1.0 0.0 0.0
1.0 0.0 0.0
1.0 0.0 0.0
1.0 0.0 0.0
1.0 0.0 0.0
1.0 0.0 0.0
1.0 0.0 0.0
1.0 0.0 0.0
1.0 0.0 0.0
1.0 0.0 0.0
1.0 0.0 0.0
1.0 0.0 0.0
1.0 0.0 0.0
1.0 0.0 0.0
1.0 0.0 0.0
1.0 0.0 0.0
1.0 0.0 0.0
0.0 0.0 0.0
0.0 0.0 0.0
0.0 0.0 0.0
0.0 0.0 0.0
0.0 0.0 0.0
0.0 0.0 0.0
0.0 0.0 0.0
0.0 0.0 0.0
0.0 0.0 0.0
0.0 0.0 0.0
0.0 0.0 0.0
0.0 0.0 0.0
0.0 0.0 0.0
0.0 0.0 0.0
0.0 0.0 0.0
0.0 0.0 0.0
0.0 0.0 0.0
0.0 0.0 0.0
0.0 0.0 0.0
CELL_DATA 40
SCALARS material_index double
LOOKUP_TABLE default
1.0
1.0
1.0
1.0
1.0
1.0
1.0
1.0
1.0
1.0
1.0
1.0
1.0
1.0
1.0
1.0
1.0
1.0
1.0
1.0
1.0
1.0
1.0
1.0
1.0
1.0
1.0
1.0
1.0
1.0
1.0
1.0
1.0
1.0
1.0
1.0
1.0
1.0
1.0
1.0
SCALARS material_prop_density double
LOOKUP_TABLE default
1500.0
1500.0
1500.0
1500.0
1500.0
1500.0
1500.0
1500.0
1500.0
1500.0
1500.0
1500.0
1500.0
1500.0
1500.0
1500.0
1500.0
1500.0
1500.0
1500.0
1500.0
1500.0
1500.0
1500.0
1500.0
1500.0
1500.0
1500.0
1500.0
1500.0
1500.0
1500.0
1500.0
1500.0
1500.0
1500.0
1500.0
1500.0
1500.0
1500.0
SCALARS material_prop_Young double
LOOKUP_TABLE default
30000000.0
30000000.0
30000000.0
30000000.0
30000000.0
30000000.0
30000000.0
30000000.0
30000000.0
30000000.0
30000000.0
30000000.0
30000000.0
30000000.0
30000000.0
30000000.0
30000000.0
30000000.0
30000000.0
30000000.0
30000000.0
30000000.0
30000000.0
30000000.0
30000000.0
30000000.0
30000000.0
30000000.0
30000000.0
30000000.0
30000000.0
30000000.0
30000000.0
30000000.0
30000000.0
30000000.0
30000000.0
30000000.0
30000000.0
30000000.0
SCALARS material_prop_poisson double
LOOKUP_TABLE default
0.2
0.2
0.2
0.2
0.2
0.2
0.2
0.2
0.2
0.2
0.2
0.2
0.2
0.2
0.2
0.2
0.2
0.2
0.2
0.2
0.2
0.2
0.2
0.2
0.2
0.2
0.2
0.2
0.2
0.2
0.2
0.2
0.2
0.2
0.2
0.2
0.2
0.2
0.2
0.2
