# vtk DataFile Version 2.0
data_174
ASCII
DATASET UNSTRUCTURED_GRID
POINTS 63 float
0.0 0.0 0.0
1.0 0.0 0.0
1.0 10.0 0.0
0.0 10.0 0.0
0.4999999999986921 0.0 0.0
1.0 0.499999999999551 0.0
1.0 0.9999999999991888 0.0
1.0 1.499999999998284 0.0
1.0 1.999999999996824 0.0
1.0 2.499999999995364 0.0
1.0 2.999999999993903 0.0
1.0 3.499999999992442 0.0
1.0 3.999999999991017 0.0
1.0 4.499999999991639 0.0
1.0 4.999999999992399 0.0
1.0 5.499999999993159 0.0
1.0 5.99999999999392 0.0
1.0 6.499999999994679 0.0
1.0 6.999999999995438 0.0
1.0 7.499999999996199 0.0
1.0 7.99999999999696 0.0
1.0 8.49999999999772 0.0
1.0 8.99999999999848 0.0
1.0 9.49999999999924 0.0
0.5000000000020595 10.0 0.0
0.0 9.5 0.0
0.0 8.999999999999998 0.0
0.0 8.499999999999998 0.0
0.0 7.999999999999996 0.0
0.0 7.499999999999995 0.0
0.0 6.999999999999995 0.0
0.0 6.499999999999996 0.0
0.0 5.999999999999996 0.0
0.0 5.499999999999996 0.0
0.0 4.999999999999996 0.0
0.0 4.499999999999997 0.0
0.0 3.999999999999996 0.0
0.0 3.499999999999997 0.0
0.0 2.999999999999998 0.0
0.0 2.499999999999998 0.0
0.0 1.999999999999998 0.0
0.0 1.5 0.0
0.0 0.9999999999999982 0.0
0.0 0.5 0.0
0.4999999999988605 0.4999999999997756 0.0
0.4999999999990288 0.9999999999995937 0.0
0.4999999999991972 1.499999999999142 0.0
0.4999999999993656 1.999999999998411 0.0
0.499999999999534 2.499999999997681 0.0
0.4999999999997023 2.999999999996951 0.0
0.4999999999998707 3.49999999999622 0.0
0.5000000000000391 3.999999999995507 0.0
0.5000000000002074 4.499999999995817 0.0
0.5000000000003758 4.999999999996198 0.0
0.5000000000005441 5.499999999996577 0.0
0.5000000000007125 5.999999999996958 0.0
0.500000000000881 6.499999999997339 0.0
0.5000000000010493 6.999999999997716 0.0
0.5000000000012177 7.499999999998098 0.0
0.500000000001386 7.999999999998479 0.0
0.5000000000015543 8.499999999998856 0.0
0.5000000000017226 8.99999999999924 0.0
0.5000000000018909 9.49999999999962 0.0
CELLS 40 200
4 0 4 44 43
4 43 44 45 42
4 42 45 46 41
4 41 46 47 40
4 40 47 48 39
4 39 48 49 38
4 38 49 50 37
4 37 50 51 36
4 36 51 52 35
4 35 52 53 34
4 34 53 54 33
4 33 54 55 32
4 32 55 56 31
4 31 56 57 30
4 30 57 58 29
4 29 58 59 28
4 28 59 60 27
4 27 60 61 26
4 26 61 62 25
4 25 62 24 3
4 4 1 5 44
4 44 5 6 45
4 45 6 7 46
4 46 7 8 47
4 47 8 9 48
4 48 9 10 49
4 49 10 11 50
4 50 11 12 51
4 51 12 13 52
4 52 13 14 53
4 53 14 15 54
4 54 15 16 55
4 55 16 17 56
4 56 17 18 57
4 57 18 19 58
4 58 19 20 59
4 59 20 21 60
4 60 21 22 61
4 61 22 23 62
4 62 23 2 24
CELL_TYPES 40
9
9
9
9
9
9
9
9
9
9
9
9
9
9
9
9
9
9
9
9
9
9
9
9
9
9
9
9
9
9
9
9
9
9
9
9
9
9
9
9
POINT_DATA 63
VECTORS displacement double
0.0 0.0 0.0
0.0 0.0 0.0
0.0 -0.7805659356873459 0.0
0.0 -0.7805659356868785 0.0
9.680992506556859e-17 0.0 0.0
0.0 -0.014398372913967988 0.0
0.0 -0.030166462634674145 0.0
0.0 -0.04842397498797141 0.0
0.0 -0.06988570032922001 0.0
0.0 -0.09477522160008463 0.0
0.0 -0.12281997441156596 0.0
0.0 -0.15350875669226927 0.0
0.0 -0.1865085684588854 0.0
0.0 -0.22180079995326127 0.0
0.0 -0.259783654950775 0.0
0.0 -0.30108023997366845 0.0
0.0 -0.3462103651569691 0.0
0.0 -0.3953286325742121 0.0
0.0 -0.44788648597027736 0.0
0.0 -0.5026975627373578 0.0
0.0 -0.558268945840297 0.0
0.0 -0.6130909647528284 0.0
0.0 -0.6659244051426636 0.0
0.0 -0.7167167882881303 0.0
3.87682215800466e-14 -0.7443998070322007 0.0
0.0 -0.7167167882880995 0.0
0.0 -0.6659244051428023 0.0
0.0 -0.6130909647530717 0.0
0.0 -0.558268945840634 0.0
0.0 -0.5026975627377794 0.0
0.0 -0.4478864859707706 0.0
0.0 -0.39532863257475565 0.0
0.0 -0.3462103651575424 0.0
0.0 -0.301080239974259 0.0
0.0 -0.25978365495137756 0.0
0.0 -0.22180079995387392 0.0
0.0 -0.18650856845949765 0.0
0.0 -0.15350875669274858 0.0
0.0 -0.12281997441192156 0.0
0.0 -0.09477522160032746 0.0
0.0 -0.06988570032936497 0.0
0.0 -0.048423974988038236 0.0
0.0 -0.03016646263470086 0.0
0.0 -0.01439837291398116 0.0
2.536532590053942e-16 -0.014406456505113347 0.0
9.96839965094216e-17 -0.030180382345041012 0.0
-1.0688097281424252e-16 -0.04843858514443793 0.0
-4.970483718571952e-16 -0.06989566451176331 0.0
-2.4917873554104944e-16 -0.09477777010897818 0.0
9.538889148477525e-18 -0.12281205054587674 0.0
3.193848545180838e-16 -0.15349724425103511 0.0
3.800582646613295e-17 -0.18649598077077215 0.0
2.557968169535202e-16 -0.2217938469635305 0.0
-1.0403417707964045e-16 -0.2597838257324364 0.0
-2.86757324140646e-16 -0.30107658205871884 0.0
3.5029823160820055e-16 -0.34620825639852104 0.0
4.1540628366590615e-16 -0.39531439416945774 0.0
-2.1482254506923126e-16 -0.4478767892485375 0.0
-3.4947278275321496e-16 -0.5026953501423903 0.0
-1.9708563938287028e-16 -0.5582759161696454 0.0
-1.404364049562571e-15 -0.6130893129030874 0.0
-6.9778485014094095e-15 -0.6658224151302812 0.0
-3.82775436244274e-14 -0.714898582195501 0.0
VECTORS velocity double
0.0 0.0 0.0
0.0 0.0 0.0
0.0 -12.723816741030632 0.0
0.0 -12.723816741032156 0.0
2.1484149836076608e-13 0.0 0.0
0.0 -0.9008728721659369 0.0
0.0 -1.8664401322251174 0.0
0.0 -2.9729334327392674 0.0
0.0 -4.227118652946778 0.0
0.0 -5.558345918042825 0.0
0.0 -6.967870691392083 0.0
0.0 -8.414534506123253 0.0
0.0 -9.911043818859723 0.0
0.0 -11.374395520165036 0.0
0.0 -12.725208943787845 0.0
0.0 -13.820739571353341 0.0
0.0 -14.542984940561821 0.0
0.0 -14.885284374202442 0.0
0.0 -14.878402444817478 0.0
0.0 -14.57535545813513 0.0
0.0 -14.109171093737661 0.0
0.0 -13.609642861427455 0.0
0.0 -13.149456454958102 0.0
0.0 -12.826584359830736 0.0
-5.314472882827519e-13 -12.71692742871846 0.0
0.0 -12.826584359831646 0.0
0.0 -13.14945645495812 0.0
0.0 -13.609642861426298 0.0
0.0 -14.109171093735696 0.0
0.0 -14.575355458132794 0.0
0.0 -14.878402444816686 0.0
0.0 -14.885284374204197 0.0
0.0 -14.542984940568186 0.0
0.0 -13.820739571365799 0.0
0.0 -12.725208943806841 0.0
0.0 -11.374395520188973 0.0
0.0 -9.911043818887268 0.0
0.0 -8.414534506145555 0.0
0.0 -6.967870691409416 0.0
0.0 -5.558345918055432 0.0
0.0 -4.227118652955815 0.0
0.0 -2.972933432743233 0.0
0.0 -1.8664401322262785 0.0
0.0 -0.9008728721666872 0.0
-5.950409960118861e-14 -0.8999477477718648 0.0
-5.791949532639238e-14 -1.8608331116072556 0.0
2.989175524397871e-13 -2.9735602377075896 0.0
-2.745044260595023e-13 -4.22267484216408 0.0
-3.518556185869624e-13 -5.561659909522372 0.0
1.0311658513758487e-13 -6.964622671016226 0.0
2.918527236417493e-13 -8.412353233885696 0.0
4.15293985669581e-14 -9.905035250215585 0.0
-5.79408145556766e-14 -11.367263113100261 0.0
1.2232003964953161e-13 -12.724825885271452 0.0
1.0918037798972786e-13 -13.823898891375702 0.0
-1.7004677970621615e-14 -14.55186758731367 0.0
3.403225159825632e-14 -14.892863479730654 0.0
-2.4588792399254646e-13 -14.877662138347198 0.0
-1.396058590060718e-13 -14.57846999529937 0.0
9.59749813037195e-14 -14.112317007913195 0.0
3.4676852897235173e-13 -13.612773995466494 0.0
7.377712594265867e-14 -13.165376244626028 0.0
1.3861648191577887e-13 -12.83149407795554 0.0
VECTORS boundary_conditions double
1.0 1.0 0.0
1.0 1.0 0.0
1.0 0.0 0.0
1.0 0.0 0.0
0.0 1.0 0.0
1.0 0.0 0.0
1.0 0.0 0.0
1.0 0.0 0.0
1.0 0.0 0.0
1.0 0.0 0.0
1.0 0.0 0.0
1.0 0.0 0.0
1.0 0.0 0.0
1.0 0.0 0.0
1.0 0.0 0.0
1.0 0.0 0.0
1.0 0.0 0.0
1.0 0.0 0.0
1.0 0.0 0.0
1.0 0.0 0.0
1.0 0.0 0.0
1.0 0.0 0.0
1.0 0.0 0.0
1.0 0.0 0.0
0.0 0.0 0.0
1.0 0.0 0.0
1.0 0.0 0.0
1.0 0.0 0.0
1.0 0.0 0.0
1.0 0.0 0.0
1.0 0.0 0.0
1.0 0.0 0.0
1.0 0.0 0.0
1.0 0.0 0.0
1.0 0.0 0.0
1.0 0.0 0.0
1.0 0.0 0.0
1.0 0.0 0.0
1.0 0.0 0.0
1.0 0.0 0.0
1.0 0.0 0.0
1.0 0.0 0.0
1.0 0.0 0.0
1.0 0.0 0.0
0.0 0.0 0.0
0.0 0.0 0.0
0.0 0.0 0.0
0.0 0.0 0.0
0.0 0.0 0.0
0.0 0.0 0.0
0.0 0.0 0.0
0.0 0.0 0.0
0.0 0.0 0.0
0.0 0.0 0.0
0.0 0.0 0.0
0.0 0.0 0.0
0.0 0.0 0.0
0.0 0.0 0.0
0.0 0.0 0.0
0.0 0.0 0.0
0.0 0.0 0.0
0.0 0.0 0.0
0.0 0.0 0.0
CELL_DATA 40
SCALARS material_index double
LOOKUP_TABLE default
1.0
1.0
1.0
1.0
1.0
1.0
1.0
1.0
1.0
1.0
1.0
1.0
1.0
1.0
1.0
1.0
1.0
1.0
1.0
1.0
1.0
1.0
1.0
1.0
1.0
1.0
1.0
1.0
1.0
1.0
1.0
1.0
1.0
1.0
1.0
1.0
1.0
1.0
1.0
1.0
SCALARS material_prop_density double
LOOKUP_TABLE default
1500.0
1500.0
1500.0
1500.0
1500.0
1500.0
1500.0
1500.0
1500.0
1500.0
1500.0
1500.0
1500.0
1500.0
1500.0
1500.0
1500.0
1500.0
1500.0
1500.0
1500.0
1500.0
1500.0
1500.0
1500.0
1500.0
1500.0
1500.0
1500.0
1500.0
1500.0
1500.0
1500.0
1500.0
1500.0
1500.0
1500.0
1500.0
1500.0
1500.0
SCALARS material_prop_Young double
LOOKUP_TABLE default
30000000.0
30000000.0
30000000.0
30000000.0
30000000.0
30000000.0
30000000.0
30000000.0
30000000.0
30000000.0
30000000.0
30000000.0
30000000.0
30000000.0
30000000.0
30000000.0
30000000.0
30000000.0
30000000.0
30000000.0
30000000.0
30000000.0
30000000.0
30000000.0
30000000.0
30000000.0
30000000.0
30000000.0
30000000.0
30000000.0
30000000.0
30000000.0
30000000.0
30000000.0
30000000.0
30000000.0
30000000.0
30000000.0
30000000.0
30000000.0
SCALARS material_prop_poisson double
LOOKUP_TABLE default
0.2
0.2
0.2
0.2
0.2
0.2
0.2
0.2
0.2
0.2
0.2
0.2
0.2
0.2
0.2
0.2
0.2
0.2
0.2
0.2
0.2
0.2
0.2
0.2
0.2
0.2
0.2
0.2
0.2
0.2
0.2
0.2
0.2
0.2
0.2
0.2
0.2
0.2
0.2
0.2
