# vtk DataFile Version 2.0
data_19
ASCII
DATASET UNSTRUCTURED_GRID
POINTS 63 float
0.0 0.0 0.0
1.0 0.0 0.0
1.0 10.0 0.0
0.0 10.0 0.0
0.4999999999986921 0.0 0.0
1.0 0.499999999999551 0.0
1.0 0.9999999999991888 0.0
1.0 1.499999999998284 0.0
1.0 1.999999999996824 0.0
1.0 2.499999999995364 0.0
1.0 2.999999999993903 0.0
1.0 3.499999999992442 0.0
1.0 3.999999999991017 0.0
1.0 4.499999999991639 0.0
1.0 4.999999999992399 0.0
1.0 5.499999999993159 0.0
1.0 5.99999999999392 0.0
1.0 6.499999999994679 0.0
1.0 6.999999999995438 0.0
1.0 7.499999999996199 0.0
1.0 7.99999999999696 0.0
1.0 8.49999999999772 0.0
1.0 8.99999999999848 0.0
1.0 9.49999999999924 0.0
0.5000000000020595 10.0 0.0
0.0 9.5 0.0
0.0 8.999999999999998 0.0
0.0 8.499999999999998 0.0
0.0 7.999999999999996 0.0
0.0 7.499999999999995 0.0
0.0 6.999999999999995 0.0
0.0 6.499999999999996 0.0
0.0 5.999999999999996 0.0
0.0 5.499999999999996 0.0
0.0 4.999999999999996 0.0
0.0 4.499999999999997 0.0
0.0 3.999999999999996 0.0
0.0 3.499999999999997 0.0
0.0 2.999999999999998 0.0
0.0 2.499999999999998 0.0
0.0 1.999999999999998 0.0
0.0 1.5 0.0
0.0 0.9999999999999982 0.0
0.0 0.5 0.0
0.4999999999988605 0.4999999999997756 0.0
0.4999999999990288 0.9999999999995937 0.0
0.4999999999991972 1.499999999999142 0.0
0.4999999999993656 1.999999999998411 0.0
0.499999999999534 2.499999999997681 0.0
0.4999999999997023 2.999999999996951 0.0
0.4999999999998707 3.49999999999622 0.0
0.5000000000000391 3.999999999995507 0.0
0.5000000000002074 4.499999999995817 0.0
0.5000000000003758 4.999999999996198 0.0
0.5000000000005441 5.499999999996577 0.0
0.5000000000007125 5.999999999996958 0.0
0.500000000000881 6.499999999997339 0.0
0.5000000000010493 6.999999999997716 0.0
0.5000000000012177 7.499999999998098 0.0
0.500000000001386 7.999999999998479 0.0
0.5000000000015543 8.499999999998856 0.0
0.5000000000017226 8.99999999999924 0.0
0.5000000000018909 9.49999999999962 0.0
CELLS 40 200
4 0 4 44 43
4 43 44 45 42
4 42 45 46 41
4 41 46 47 40
4 40 47 48 39
4 39 48 49 38
4 38 49 50 37
4 37 50 51 36
4 36 51 52 35
4 35 52 53 34
4 34 53 54 33
4 33 54 55 32
4 32 55 56 31
4 31 56 57 30
4 30 57 58 29
4 29 58 59 28
4 28 59 60 27
4 27 60 61 26
4 26 61 62 25
4 25 62 24 3
4 4 1 5 44
4 44 5 6 45
4 45 6 7 46
4 46 7 8 47
4 47 8 9 48
4 48 9 10 49
4 49 10 11 50
4 50 11 12 51
4 51 12 13 52
4 52 13 14 53
4 53 14 15 54
4 54 15 16 55
4 55 16 17 56
4 56 17 18 57
4 57 18 19 58
4 58 19 20 59
4 59 20 21 60
4 60 21 22 61
4 61 22 23 62
4 62 23 2 24
CELL_TYPES 40
9
9
9
9
9
9
9
9
9
9
9
9
9
9
9
9
9
9
9
9
9
9
9
9
9
9
9
9
9
9
9
9
9
9
9
9
9
9
9
9
POINT_DATA 63
VECTORS displacement double
0.0 0.0 0.0
0.0 0.0 0.0
0.0 -1.1559739414714807 0.0
0.0 -1.155973941471007 0.0
-2.605876358405649e-16 0.0 0.0
0.0 -0.09699164270504652 0.0
0.0 -0.1893232278956295 0.0
0.0 -0.2741104059746048 0.0
0.0 -0.3505443713160704 0.0
0.0 -0.4190255480188935 0.0
0.0 -0.48063708559006757 0.0
0.0 -0.5371038832121929 0.0
0.0 -0.5898402022195566 0.0
0.0 -0.639067999400324 0.0
0.0 -0.6856677737421474 0.0
0.0 -0.7320532367056902 0.0
0.0 -0.7782933607030695 0.0
0.0 -0.8230570865391046 0.0
0.0 -0.8681909788027536 0.0
0.0 -0.9137057510268695 0.0
0.0 -0.9585671445695144 0.0
0.0 -1.0034150233695929 0.0
0.0 -1.0478667051192314 0.0
0.0 -1.094202614975889 0.0
4.028261496881371e-14 -1.120666363878308 0.0
0.0 -1.094202614975843 0.0
0.0 -1.0478667051193444 0.0
0.0 -1.003415023369789 0.0
0.0 -0.9585671445697751 0.0
0.0 -0.9137057510272031 0.0
0.0 -0.8681909788031745 0.0
0.0 -0.8230570865395757 0.0
0.0 -0.7782933607036188 0.0
0.0 -0.732053236706334 0.0
0.0 -0.6856677737428508 0.0
0.0 -0.6390679994011162 0.0
0.0 -0.5898402022204732 0.0
0.0 -0.5371038832130196 0.0
0.0 -0.48063708559078505 0.0
0.0 -0.4190255480194955 0.0
0.0 -0.3505443713165329 0.0
0.0 -0.2741104059748843 0.0
0.0 -0.18932322789577483 0.0
0.0 -0.09699164270513266 0.0
-3.138496152009332e-17 -0.09699164270509052 0.0
-1.220212131185562e-16 -0.18932322789567962 0.0
1.0690386765536928e-18 -0.2741104059751867 0.0
-1.1756521362694931e-16 -0.3505443713095155 0.0
-9.162628548050091e-17 -0.4190255480957542 0.0
9.499504436128986e-16 -0.4806370850307693 0.0
-9.887480650936535e-17 -0.5371038847892337 0.0
-1.1495095583791789e-15 -0.5898402158542032 0.0
8.956527236182438e-16 -0.6390678434001759 0.0
2.1808489654295578e-15 -0.6856681727285938 0.0
-2.3969711336364793e-15 -0.7320554985821068 0.0
-1.6718931897848728e-15 -0.7782788898492096 0.0
3.2405690828512102e-15 -0.8230552143318144 0.0
-1.999729176841415e-15 -0.8683496003703797 0.0
-1.9021808411834124e-15 -0.9135752891465518 0.0
1.3800638532002542e-15 -0.9578402619743895 0.0
-4.663206970699702e-15 -1.003851609553074 0.0
-5.9905110627838335e-15 -1.0487021442965894 0.0
-3.7111115674394544e-14 -1.0928993836996703 0.0
VECTORS velocity double
0.0 0.0 0.0
0.0 0.0 0.0
0.0 -13.467341258506544 0.0
0.0 -13.467341258508437 0.0
1.1383482953035035e-14 0.0 0.0
0.0 0.05086200376053984 0.0
0.0 -0.6279579433257183 0.0
0.0 -2.315767078256693 0.0
0.0 -4.670823572693388 0.0
0.0 -7.071719685140241 0.0
0.0 -9.178149061415958 0.0
0.0 -10.910523531007879 0.0
0.0 -11.965308278380135 0.0
0.0 -12.267039454272261 0.0
0.0 -12.676472233396183 0.0
0.0 -13.366129774040811 0.0
0.0 -13.23674761219248 0.0
0.0 -13.077080734129138 0.0
0.0 -13.58202358359259 0.0
0.0 -13.393641048022845 0.0
0.0 -13.296844164413393 0.0
0.0 -13.015840182911377 0.0
0.0 -13.410565985164533 0.0
0.0 -13.479501036740398 0.0
-7.815197397004111e-13 -12.994975497617286 0.0
0.0 -13.47950103673855 0.0
0.0 -13.410565985165622 0.0
0.0 -13.01584018291207 0.0
0.0 -13.296844164417518 0.0
0.0 -13.393641048014617 0.0
0.0 -13.58202358359349 0.0
0.0 -13.077080734135466 0.0
0.0 -13.236747612183349 0.0
0.0 -13.366129774045291 0.0
0.0 -12.67647223340925 0.0
0.0 -12.267039454275512 0.0
0.0 -11.965308278389953 0.0
0.0 -10.910523531030814 0.0
0.0 -9.178149061440442 0.0
0.0 -7.071719685160804 0.0
0.0 -4.67082357270869 0.0
0.0 -2.315767078264228 0.0
0.0 -0.6279579433277833 0.0
0.0 0.05086200376041372 0.0
3.451575285823997e-14 0.050862003759985175 0.0
9.433931967100437e-14 -0.6279579433143461 0.0
-1.4347724818138336e-13 -2.3157670785223026 0.0
-2.3946974289217114e-13 -4.670823568264115 0.0
2.6662818712196676e-13 -7.071719743144442 0.0
2.6666096041753943e-13 -9.178148514970454 0.0
-6.495640039420873e-13 -10.91052671587104 0.0
1.9841780309754261e-13 -11.965303718764694 0.0
1.0988300378995655e-12 -12.266949700319483 0.0
-6.548985450946195e-13 -12.677167750836052 0.0
-1.562167469182312e-12 -13.365027905077497 0.0
1.7920435682873966e-12 -13.227377984446132 0.0
7.07519049664592e-14 -13.118888703404744 0.0
-2.152239495283549e-12 -13.60020119726738 0.0
2.099379326305944e-12 -13.052386138843133 0.0
-1.355330617769566e-12 -13.496668224408639 0.0
2.2407291045049478e-14 -13.879139742125753 0.0
2.113278932683285e-12 -13.111059124495904 0.0
-1.3265023046143202e-12 -13.571836868139052 0.0
VECTORS boundary_conditions double
1.0 1.0 0.0
1.0 1.0 0.0
1.0 0.0 0.0
1.0 0.0 0.0
0.0 1.0 0.0
1.0 0.0 0.0
1.0 0.0 0.0
1.0 0.0 0.0
1.0 0.0 0.0
1.0 0.0 0.0
1.0 0.0 0.0
1.0 0.0 0.0
1.0 0.0 0.0
1.0 0.0 0.0
1.0 0.0 0.0
1.0 0.0 0.0
1.0 0.0 0.0
1.0 0.0 0.0
1.0 0.0 0.0
1.0 0.0 0.0
1.0 0.0 0.0
1.0 0.0 0.0
1.0 0.0 0.0
1.0 0.0 0.0
0.0 0.0 0.0
1.0 0.0 0.0
1.0 0.0 0.0
1.0 0.0 0.0
1.0 0.0 0.0
1.0 0.0 0.0
1.0 0.0 0.0
1.0 0.0 0.0
1.0 0.0 0.0
1.0 0.0 0.0
1.0 0.0 0.0
1.0 0.0 0.0
1.0 0.0 0.0
1.0 0.0 0.0
1.0 0.0 0.0
1.0 0.0 0.0
1.0 0.0 0.0
1.0 0.0 0.0
1.0 0.0 0.0
1.0 0.0 0.0
0.0 0.0 0.0
0.0 0.0 0.0
0.0 0.0 0.0
0.0 0.0 0.0
0.0 0.0 0.0
0.0 0.0 0.0
0.0 0.0 0.0
0.0 0.0 0.0
0.0 0.0 0.0
0.0 0.0 0.0
0.0 0.0 0.0
0.0 0.0 0.0
0.0 0.0 0.0
0.0 0.0 0.0
0.0 0.0 0.0
0.0 0.0 0.0
0.0 0.0 0.0
0.0 0.0 0.0
0.0 0.0 0.0
CELL_DATA 40
SCALARS material_index double
LOOKUP_TABLE default
1.0
1.0
1.0
1.0
1.0
1.0
1.0
1.0
1.0
1.0
1.0
1.0
1.0
1.0
1.0
1.0
1.0
1.0
1.0
1.0
1.0
1.0
1.0
1.0
1.0
1.0
1.0
1.0
1.0
1.0
1.0
1.0
1.0
1.0
1.0
1.0
1.0
1.0
1.0
1.0
SCALARS material_prop_density double
LOOKUP_TABLE default
1500.0
1500.0
1500.0
1500.0
1500.0
1500.0
1500.0
1500.0
1500.0
1500.0
1500.0
1500.0
1500.0
1500.0
1500.0
1500.0
1500.0
1500.0
1500.0
1500.0
1500.0
1500.0
1500.0
1500.0
1500.0
1500.0
1500.0
1500.0
1500.0
1500.0
1500.0
1500.0
1500.0
1500.0
1500.0
1500.0
1500.0
1500.0
1500.0
1500.0
SCALARS material_prop_Young double
LOOKUP_TABLE default
30000000.0
30000000.0
30000000.0
30000000.0
30000000.0
30000000.0
30000000.0
30000000.0
30000000.0
30000000.0
30000000.0
30000000.0
30000000.0
30000000.0
30000000.0
30000000.0
30000000.0
30000000.0
30000000.0
30000000.0
30000000.0
30000000.0
30000000.0
30000000.0
30000000.0
30000000.0
30000000.0
30000000.0
30000000.0
30000000.0
30000000.0
30000000.0
30000000.0
30000000.0
30000000.0
30000000.0
30000000.0
30000000.0
30000000.0
30000000.0
SCALARS material_prop_poisson double
LOOKUP_TABLE default
0.2
0.2
0.2
0.2
0.2
0.2
0.2
0.2
0.2
0.2
0.2
0.2
0.2
0.2
0.2
0.2
0.2
0.2
0.2
0.2
0.2
0.2
0.2
0.2
0.2
0.2
0.2
0.2
0.2
0.2
0.2
0.2
0.2
0.2
0.2
0.2
0.2
0.2
0.2
0.2
