# vtk DataFile Version 2.0
data_192
ASCII
DATASET UNSTRUCTURED_GRID
POINTS 63 float
0.0 0.0 0.0
1.0 0.0 0.0
1.0 10.0 0.0
0.0 10.0 0.0
0.4999999999986921 0.0 0.0
1.0 0.499999999999551 0.0
1.0 0.9999999999991888 0.0
1.0 1.499999999998284 0.0
1.0 1.999999999996824 0.0
1.0 2.499999999995364 0.0
1.0 2.999999999993903 0.0
1.0 3.499999999992442 0.0
1.0 3.999999999991017 0.0
1.0 4.499999999991639 0.0
1.0 4.999999999992399 0.0
1.0 5.499999999993159 0.0
1.0 5.99999999999392 0.0
1.0 6.499999999994679 0.0
1.0 6.999999999995438 0.0
1.0 7.499999999996199 0.0
1.0 7.99999999999696 0.0
1.0 8.49999999999772 0.0
1.0 8.99999999999848 0.0
1.0 9.49999999999924 0.0
0.5000000000020595 10.0 0.0
0.0 9.5 0.0
0.0 8.999999999999998 0.0
0.0 8.499999999999998 0.0
0.0 7.999999999999996 0.0
0.0 7.499999999999995 0.0
0.0 6.999999999999995 0.0
0.0 6.499999999999996 0.0
0.0 5.999999999999996 0.0
0.0 5.499999999999996 0.0
0.0 4.999999999999996 0.0
0.0 4.499999999999997 0.0
0.0 3.999999999999996 0.0
0.0 3.499999999999997 0.0
0.0 2.999999999999998 0.0
0.0 2.499999999999998 0.0
0.0 1.999999999999998 0.0
0.0 1.5 0.0
0.0 0.9999999999999982 0.0
0.0 0.5 0.0
0.4999999999988605 0.4999999999997756 0.0
0.4999999999990288 0.9999999999995937 0.0
0.4999999999991972 1.499999999999142 0.0
0.4999999999993656 1.999999999998411 0.0
0.499999999999534 2.499999999997681 0.0
0.4999999999997023 2.999999999996951 0.0
0.4999999999998707 3.49999999999622 0.0
0.5000000000000391 3.999999999995507 0.0
0.5000000000002074 4.499999999995817 0.0
0.5000000000003758 4.999999999996198 0.0
0.5000000000005441 5.499999999996577 0.0
0.5000000000007125 5.999999999996958 0.0
0.500000000000881 6.499999999997339 0.0
0.5000000000010493 6.999999999997716 0.0
0.5000000000012177 7.499999999998098 0.0
0.500000000001386 7.999999999998479 0.0
0.5000000000015543 8.499999999998856 0.0
0.5000000000017226 8.99999999999924 0.0
0.5000000000018909 9.49999999999962 0.0
CELLS 40 200
4 0 4 44 43
4 43 44 45 42
4 42 45 46 41
4 41 46 47 40
4 40 47 48 39
4 39 48 49 38
4 38 49 50 37
4 37 50 51 36
4 36 51 52 35
4 35 52 53 34
4 34 53 54 33
4 33 54 55 32
4 32 55 56 31
4 31 56 57 30
4 30 57 58 29
4 29 58 59 28
4 28 59 60 27
4 27 60 61 26
4 26 61 62 25
4 25 62 24 3
4 4 1 5 44
4 44 5 6 45
4 45 6 7 46
4 46 7 8 47
4 47 8 9 48
4 48 9 10 49
4 49 10 11 50
4 50 11 12 51
4 51 12 13 52
4 52 13 14 53
4 53 14 15 54
4 54 15 16 55
4 55 16 17 56
4 56 17 18 57
4 57 18 19 58
4 58 19 20 59
4 59 20 21 60
4 60 21 22 61
4 61 22 23 62
4 62 23 2 24
CELL_TYPES 40
9
9
9
9
9
9
9
9
9
9
9
9
9
9
9
9
9
9
9
9
9
9
9
9
9
9
9
9
9
9
9
9
9
9
9
9
9
9
9
9
POINT_DATA 63
VECTORS displacement double
0.0 0.0 0.0
0.0 0.0 0.0
0.0 -1.6524997325349648 0.0
0.0 -1.6524997325344908 0.0
1.3434546929240587e-16 0.0 0.0
0.0 -0.08612389048383022 0.0
0.0 -0.17247506583554123 0.0
0.0 -0.2591575815564304 0.0
0.0 -0.34618815487476134 0.0
0.0 -0.433491192034699 0.0
0.0 -0.5209888823003233 0.0
0.0 -0.6087721589924637 0.0
0.0 -0.6970975098873465 0.0
0.0 -0.7862404519623885 0.0
0.0 -0.87627846470176 0.0
0.0 -0.9669521764381904 0.0
0.0 -1.0574889092748925 0.0
0.0 -1.1466661792221622 0.0
0.0 -1.2331043369473975 0.0
0.0 -1.315509539487273 0.0
0.0 -1.3927870847523594 0.0
0.0 -1.4640218365307271 0.0
0.0 -1.5284652874974851 0.0
0.0 -1.5862778989626587 0.0
3.8999630382407734e-14 -1.6163078492839607 0.0
0.0 -1.586277898962628 0.0
0.0 -1.5284652874976474 0.0
0.0 -1.4640218365310302 0.0
0.0 -1.3927870847528072 0.0
0.0 -1.3155095394878782 0.0
0.0 -1.2331043369481673 0.0
0.0 -1.146666179223097 0.0
0.0 -1.0574889092759852 0.0
0.0 -0.9669521764394305 0.0
0.0 -0.876278464703131 0.0
0.0 -0.7862404519638837 0.0
0.0 -0.6970975098889385 0.0
0.0 -0.6087721589937928 0.0
0.0 -0.5209888823013905 0.0
0.0 -0.43349119203550857 0.0
0.0 -0.34618815487531374 0.0
0.0 -0.2591575815567273 0.0
0.0 -0.17247506583568112 0.0
0.0 -0.08612389048390802 0.0
5.046701812431005e-17 -0.08612868130799986 0.0
-2.500434695052381e-16 -0.1724818947901636 0.0
-1.6353383939332772e-16 -0.259166600055731 0.0
1.875110083514486e-16 -0.3461932211213159 0.0
7.594925183961678e-17 -0.43349529963549743 0.0
-8.702493584484001e-17 -0.5209870949358364 0.0
-2.0890130088784023e-16 -0.608771474982586 0.0
-2.933783095631315e-17 -0.6970953665456323 0.0
-4.9646524959104415e-17 -0.7862408841281623 0.0
1.1049424844152621e-16 -0.8762820972686881 0.0
5.2765386208475105e-17 -0.9669534747074777 0.0
-3.707854723829851e-16 -1.057485598977428 0.0
-1.3869102247593654e-16 -1.146656252140867 0.0
-2.5013867310240038e-17 -1.2331005191689914 0.0
1.871794256423161e-16 -1.315501805682585 0.0
-2.544182649760835e-16 -1.3927773784912685 0.0
-1.2523652871952785e-15 -1.4640193874269354 0.0
-6.831959921978307e-15 -1.528376291278426 0.0
-3.839308601570424e-14 -1.5844542165193771 0.0
VECTORS velocity double
0.0 0.0 0.0
0.0 0.0 0.0
0.0 4.075630532205427 0.0
0.0 4.075630532206031 0.0
-2.3159387796595195e-13 0.0 0.0
0.0 -0.6763734862619166 0.0
0.0 -1.2399884790496114 0.0
0.0 -1.574894169480669 0.0
0.0 -1.5952809463720188 0.0
0.0 -1.2057840855668225 0.0
0.0 -0.43240624646148085 0.0
0.0 0.6123050573553765 0.0
0.0 1.7453839909323285 0.0
0.0 2.777177344352511 0.0
0.0 3.5547960782300247 0.0
0.0 4.012079120250599 0.0
0.0 4.137526370871223 0.0
0.0 4.03129742845525 0.0
0.0 3.830435363754013 0.0
0.0 3.666656461502905 0.0
0.0 3.6149905479593727 0.0
0.0 3.707355168862085 0.0
0.0 3.8720211117899126 0.0
0.0 4.015957719221824 0.0
1.4702441892904728e-13 4.075992459792911 0.0
0.0 4.015957719223135 0.0
0.0 3.872021111790467 0.0
0.0 3.707355168862758 0.0
0.0 3.6149905479599127 0.0
0.0 3.666656461501514 0.0
0.0 3.8304353637516684 0.0
0.0 4.031297428452696 0.0
0.0 4.1375263708700345 0.0
0.0 4.012079120254308 0.0
0.0 3.5547960782394803 0.0
0.0 2.777177344368619 0.0
0.0 1.745383990952929 0.0
0.0 0.6123050573722928 0.0
0.0 -0.43240624645010683 0.0
0.0 -1.2057840855612518 0.0
0.0 -1.5952809463708855 0.0
0.0 -1.574894169481425 0.0
0.0 -1.2399884790500408 0.0
0.0 -0.6763734862621609 0.0
-1.5579316154483484e-13 -0.6784263796919336 0.0
1.0497549027395351e-13 -1.2419087429178832 0.0
-1.3147086821816744e-14 -1.5797708675175839 0.0
2.1476850255948154e-15 -1.5974153720980633 0.0
2.310278829645503e-13 -1.2089267558298111 0.0
1.6025245155787798e-13 -0.4310418949085175 0.0
-3.847600787192332e-14 0.6155153241553801 0.0
-7.342155727095992e-14 1.7517489188376079 0.0
-1.909434073983515e-13 2.783600295217868 0.0
-1.971082651584172e-13 3.5582844332874135 0.0
3.1052668165831803e-13 4.0143635400340525 0.0
1.1236720967605026e-13 4.1383005870000495 0.0
-2.3828223676315015e-13 4.026048739834266 0.0
1.704521550941714e-13 3.832822669130639 0.0
2.011364114334335e-13 3.6731355163065285 0.0
1.2046036131648007e-13 3.618469187565239 0.0
-1.242969755711277e-13 3.701218974744407 0.0
-3.107736688941983e-13 3.870081036844706 0.0
-1.232796049783912e-13 4.017613547998852 0.0
VECTORS boundary_conditions double
1.0 1.0 0.0
1.0 1.0 0.0
1.0 0.0 0.0
1.0 0.0 0.0
0.0 1.0 0.0
1.0 0.0 0.0
1.0 0.0 0.0
1.0 0.0 0.0
1.0 0.0 0.0
1.0 0.0 0.0
1.0 0.0 0.0
1.0 0.0 0.0
1.0 0.0 0.0
1.0 0.0 0.0
1.0 0.0 0.0
1.0 0.0 0.0
1.0 0.0 0.0
1.0 0.0 0.0
1.0 0.0 0.0
1.0 0.0 0.0
1.0 0.0 0.0
1.0 0.0 0.0
1.0 0.0 0.0
1.0 0.0 0.0
0.0 0.0 0.0
1.0 0.0 0.0
1.0 0.0 0.0
1.0 0.0 0.0
1.0 0.0 0.0
1.0 0.0 0.0
1.0 0.0 0.0
1.0 0.0 0.0
1.0 0.0 0.0
1.0 0.0 0.0
1.0 0.0 0.0
1.0 0.0 0.0
1.0 0.0 0.0
1.0 0.0 0.0
1.0 0.0 0.0
1.0 0.0 0.0
1.0 0.0 0.0
1.0 0.0 0.0
1.0 0.0 0.0
1.0 0.0 0.0
0.0 0.0 0.0
0.0 0.0 0.0
0.0 0.0 0.0
0.0 0.0 0.0
0.0 0.0 0.0
0.0 0.0 0.0
0.0 0.0 0.0
0.0 0.0 0.0
0.0 0.0 0.0
0.0 0.0 0.0
0.0 0.0 0.0
0.0 0.0 0.0
0.0 0.0 0.0
0.0 0.0 0.0
0.0 0.0 0.0
0.0 0.0 0.0
0.0 0.0 0.0
0.0 0.0 0.0
0.0 0.0 0.0
CELL_DATA 40
SCALARS material_index double
LOOKUP_TABLE default
1.0
1.0
1.0
1.0
1.0
1.0
1.0
1.0
1.0
1.0
1.0
1.0
1.0
1.0
1.0
1.0
1.0
1.0
1.0
1.0
1.0
1.0
1.0
1.0
1.0
1.0
1.0
1.0
1.0
1.0
1.0
1.0
1.0
1.0
1.0
1.0
1.0
1.0
1.0
1.0
SCALARS material_prop_density double
LOOKUP_TABLE default
1500.0
1500.0
1500.0
1500.0
1500.0
1500.0
1500.0
1500.0
1500.0
1500.0
1500.0
1500.0
1500.0
1500.0
1500.0
1500.0
1500.0
1500.0
1500.0
1500.0
1500.0
1500.0
1500.0
1500.0
1500.0
1500.0
1500.0
1500.0
1500.0
1500.0
1500.0
1500.0
1500.0
1500.0
1500.0
1500.0
1500.0
1500.0
1500.0
1500.0
SCALARS material_prop_Young double
LOOKUP_TABLE default
30000000.0
30000000.0
30000000.0
30000000.0
30000000.0
30000000.0
30000000.0
30000000.0
30000000.0
30000000.0
30000000.0
30000000.0
30000000.0
30000000.0
30000000.0
30000000.0
30000000.0
30000000.0
30000000.0
30000000.0
30000000.0
30000000.0
30000000.0
30000000.0
30000000.0
30000000.0
30000000.0
30000000.0
30000000.0
30000000.0
30000000.0
30000000.0
30000000.0
30000000.0
30000000.0
30000000.0
30000000.0
30000000.0
30000000.0
30000000.0
SCALARS material_prop_poisson double
LOOKUP_TABLE default
0.2
0.2
0.2
0.2
0.2
0.2
0.2
0.2
0.2
0.2
0.2
0.2
0.2
0.2
0.2
0.2
0.2
0.2
0.2
0.2
0.2
0.2
0.2
0.2
0.2
0.2
0.2
0.2
0.2
0.2
0.2
0.2
0.2
0.2
0.2
0.2
0.2
0.2
0.2
0.2
