# vtk DataFile Version 2.0
data_183
ASCII
DATASET UNSTRUCTURED_GRID
POINTS 63 float
0.0 0.0 0.0
1.0 0.0 0.0
1.0 10.0 0.0
0.0 10.0 0.0
0.4999999999986921 0.0 0.0
1.0 0.499999999999551 0.0
1.0 0.9999999999991888 0.0
1.0 1.499999999998284 0.0
1.0 1.999999999996824 0.0
1.0 2.499999999995364 0.0
1.0 2.999999999993903 0.0
1.0 3.499999999992442 0.0
1.0 3.999999999991017 0.0
1.0 4.499999999991639 0.0
1.0 4.999999999992399 0.0
1.0 5.499999999993159 0.0
1.0 5.99999999999392 0.0
1.0 6.499999999994679 0.0
1.0 6.999999999995438 0.0
1.0 7.499999999996199 0.0
1.0 7.99999999999696 0.0
1.0 8.49999999999772 0.0
1.0 8.99999999999848 0.0
1.0 9.49999999999924 0.0
0.5000000000020595 10.0 0.0
0.0 9.5 0.0
0.0 8.999999999999998 0.0
0.0 8.499999999999998 0.0
0.0 7.999999999999996 0.0
0.0 7.499999999999995 0.0
0.0 6.999999999999995 0.0
0.0 6.499999999999996 0.0
0.0 5.999999999999996 0.0
0.0 5.499999999999996 0.0
0.0 4.999999999999996 0.0
0.0 4.499999999999997 0.0
0.0 3.999999999999996 0.0
0.0 3.499999999999997 0.0
0.0 2.999999999999998 0.0
0.0 2.499999999999998 0.0
0.0 1.999999999999998 0.0
0.0 1.5 0.0
0.0 0.9999999999999982 0.0
0.0 0.5 0.0
0.4999999999988605 0.4999999999997756 0.0
0.4999999999990288 0.9999999999995937 0.0
0.4999999999991972 1.499999999999142 0.0
0.4999999999993656 1.999999999998411 0.0
0.499999999999534 2.499999999997681 0.0
0.4999999999997023 2.999999999996951 0.0
0.4999999999998707 3.49999999999622 0.0
0.5000000000000391 3.999999999995507 0.0
0.5000000000002074 4.499999999995817 0.0
0.5000000000003758 4.999999999996198 0.0
0.5000000000005441 5.499999999996577 0.0
0.5000000000007125 5.999999999996958 0.0
0.500000000000881 6.499999999997339 0.0
0.5000000000010493 6.999999999997716 0.0
0.5000000000012177 7.499999999998098 0.0
0.500000000001386 7.999999999998479 0.0
0.5000000000015543 8.499999999998856 0.0
0.5000000000017226 8.99999999999924 0.0
0.5000000000018909 9.49999999999962 0.0
CELLS 40 200
4 0 4 44 43
4 43 44 45 42
4 42 45 46 41
4 41 46 47 40
4 40 47 48 39
4 39 48 49 38
4 38 49 50 37
4 37 50 51 36
4 36 51 52 35
4 35 52 53 34
4 34 53 54 33
4 33 54 55 32
4 32 55 56 31
4 31 56 57 30
4 30 57 58 29
4 29 58 59 28
4 28 59 60 27
4 27 60 61 26
4 26 61 62 25
4 25 62 24 3
4 4 1 5 44
4 44 5 6 45
4 45 6 7 46
4 46 7 8 47
4 47 8 9 48
4 48 9 10 49
4 49 10 11 50
4 50 11 12 51
4 51 12 13 52
4 52 13 14 53
4 53 14 15 54
4 54 15 16 55
4 55 16 17 56
4 56 17 18 57
4 57 18 19 58
4 58 19 20 59
4 59 20 21 60
4 60 21 22 61
4 61 22 23 62
4 62 23 2 24
CELL_TYPES 40
9
9
9
9
9
9
9
9
9
9
9
9
9
9
9
9
9
9
9
9
9
9
9
9
9
9
9
9
9
9
9
9
9
9
9
9
9
9
9
9
POINT_DATA 63
VECTORS displacement double
0.0 0.0 0.0
0.0 0.0 0.0
0.0 -1.3466360650796545 0.0
0.0 -1.3466360650791853 0.0
-6.766113184826838e-16 0.0 0.0
0.0 -0.10092534409316647 0.0
0.0 -0.19997755244445628 0.0
0.0 -0.29554772256536793 0.0
0.0 -0.38646977962742 0.0
0.0 -0.4720735683461986 0.0
0.0 -0.5519998643505329 0.0
0.0 -0.6261573795097631 0.0
0.0 -0.6947283021937503 0.0
0.0 -0.7580883929884765 0.0
0.0 -0.8169016936613764 0.0
0.0 -0.8721152963301985 0.0
0.0 -0.9248225099176834 0.0
0.0 -0.9761595069344343 0.0
0.0 -1.0271512924511343 0.0
0.0 -1.078462994846855 0.0
0.0 -1.1302352611184767 0.0
0.0 -1.182019165394609 0.0
0.0 -1.232986216057547 0.0
0.0 -1.2829546636657052 0.0
3.88491139085533e-14 -1.3104397165583492 0.0
0.0 -1.282954663665671 0.0
0.0 -1.232986216057679 0.0
0.0 -1.1820191653948389 0.0
0.0 -1.1302352611187905 0.0
0.0 -1.0784629948472466 0.0
0.0 -1.0271512924516004 0.0
0.0 -0.9761595069349766 0.0
0.0 -0.9248225099183127 0.0
0.0 -0.8721152963309324 0.0
0.0 -0.8169016936622397 0.0
0.0 -0.7580883929894963 0.0
0.0 -0.6947283021949348 0.0
0.0 -0.6261573795108414 0.0
0.0 -0.551999864351473 0.0
0.0 -0.4720735683469671 0.0
0.0 -0.38646977962798196 0.0
0.0 -0.29554772256569023 0.0
0.0 -0.19997755244461562 0.0
0.0 -0.10092534409325653 0.0
5.1889803046554287e-17 -0.10093183908212702 0.0
8.701512738782285e-17 -0.19998916145333012 0.0
-3.9904805659540324e-16 -0.29555915307637726 0.0
-1.1199597998737118e-16 -0.3864797454303049 0.0
3.2799306354409914e-16 -0.4720756905448276 0.0
1.8527134236170216e-16 -0.5519982827887301 0.0
-1.4397581603300088e-17 -0.6261497722738664 0.0
1.0241570079294774e-15 -0.6947227738114926 0.0
-2.2160487913282365e-16 -0.7580851389165743 0.0
-6.059487989910822e-16 -0.8169001115917781 0.0
-4.670126951802505e-16 -0.8721169873661937 0.0
4.030276873728099e-17 -0.9248156691420898 0.0
3.6273036647552637e-16 -0.9761496304510497 0.0
2.1615687980692912e-16 -1.0271374337693508 0.0
1.4714404491093514e-16 -1.0784605774123022 0.0
-4.974286789279111e-16 -1.1302338815854633 0.0
-1.6603281437696484e-15 -1.1820073841688639 0.0
-7.007486934257053e-15 -1.232894305689512 0.0
-3.813449113998941e-14 -1.281139678710187 0.0
VECTORS velocity double
0.0 0.0 0.0
0.0 0.0 0.0
0.0 -12.23127860905388 0.0
0.0 -12.231278609055018 0.0
1.5349491612311484e-13 0.0 0.0
0.0 -1.0657303040081776 0.0
0.0 -2.0027717375454195 0.0
0.0 -2.7331248777194155 0.0
0.0 -3.239894591873732 0.0
0.0 -3.6246324961172824 0.0
0.0 -4.032501145619971 0.0
0.0 -4.616819379302971 0.0
0.0 -5.384379494965566 0.0
0.0 -6.338968762140807 0.0
0.0 -7.400105243247932 0.0
0.0 -8.467992796922351 0.0
0.0 -9.47227977093422 0.0
0.0 -10.383146900887507 0.0
0.0 -11.164560603956929 0.0
0.0 -11.771210173547809 0.0
0.0 -12.155264494860084 0.0
0.0 -12.32262939423782 0.0
0.0 -12.321202031402866 0.0
0.0 -12.261063807103472 0.0
-2.255719146825828e-13 -12.224596642315412 0.0
0.0 -12.26106380710425 0.0
0.0 -12.321202031403153 0.0
0.0 -12.322629394239026 0.0
0.0 -12.155264494862223 0.0
0.0 -11.771210173552102 0.0
0.0 -11.164560603963643 0.0
0.0 -10.383146900897032 0.0
0.0 -9.47227977094591 0.0
0.0 -8.467992796937295 0.0
0.0 -7.400105243264626 0.0
0.0 -6.33896876215767 0.0
0.0 -5.384379494980305 0.0
0.0 -4.61681937931327 0.0
0.0 -4.0325011456262825 0.0
0.0 -3.6246324961210767 0.0
0.0 -3.239894591876153 0.0
0.0 -2.7331248777211465 0.0
0.0 -2.0027717375466 0.0
0.0 -1.0657303040091493 0.0
-5.380816547095637e-14 -1.064975325526195 0.0
-6.13679091922399e-14 -2.0049437506724184 0.0
1.2764859955939982e-14 -2.7322006560442134 0.0
4.526617064881806e-14 -3.243817913998628 0.0
1.8610902396006738e-13 -3.6233819776555354 0.0
5.945867851627468e-14 -4.032926178705305 0.0
-4.463800919607886e-13 -4.611673156497487 0.0
-6.526637088615688e-14 -5.37774649848755 0.0
3.1780729955008365e-14 -6.332238424593982 0.0
5.30598069907341e-15 -7.3954690833685515 0.0
2.2175122218891059e-13 -8.469399713174056 0.0
1.9393383272728515e-13 -9.475853551028099 0.0
7.612042586820878e-14 -10.384851108872585 0.0
-1.000834403743608e-13 -11.169619919968262 0.0
-3.639897415084777e-14 -11.767378775893937 0.0
-4.556277175099962e-14 -12.151196835077645 0.0
-1.1803114365482193e-13 -12.329533097460548 0.0
-1.2778128254781457e-13 -12.332786373753244 0.0
2.0911109564119017e-13 -12.26305047785796 0.0
VECTORS boundary_conditions double
1.0 1.0 0.0
1.0 1.0 0.0
1.0 0.0 0.0
1.0 0.0 0.0
0.0 1.0 0.0
1.0 0.0 0.0
1.0 0.0 0.0
1.0 0.0 0.0
1.0 0.0 0.0
1.0 0.0 0.0
1.0 0.0 0.0
1.0 0.0 0.0
1.0 0.0 0.0
1.0 0.0 0.0
1.0 0.0 0.0
1.0 0.0 0.0
1.0 0.0 0.0
1.0 0.0 0.0
1.0 0.0 0.0
1.0 0.0 0.0
1.0 0.0 0.0
1.0 0.0 0.0
1.0 0.0 0.0
1.0 0.0 0.0
0.0 0.0 0.0
1.0 0.0 0.0
1.0 0.0 0.0
1.0 0.0 0.0
1.0 0.0 0.0
1.0 0.0 0.0
1.0 0.0 0.0
1.0 0.0 0.0
1.0 0.0 0.0
1.0 0.0 0.0
1.0 0.0 0.0
1.0 0.0 0.0
1.0 0.0 0.0
1.0 0.0 0.0
1.0 0.0 0.0
1.0 0.0 0.0
1.0 0.0 0.0
1.0 0.0 0.0
1.0 0.0 0.0
1.0 0.0 0.0
0.0 0.0 0.0
0.0 0.0 0.0
0.0 0.0 0.0
0.0 0.0 0.0
0.0 0.0 0.0
0.0 0.0 0.0
0.0 0.0 0.0
0.0 0.0 0.0
0.0 0.0 0.0
0.0 0.0 0.0
0.0 0.0 0.0
0.0 0.0 0.0
0.0 0.0 0.0
0.0 0.0 0.0
0.0 0.0 0.0
0.0 0.0 0.0
0.0 0.0 0.0
0.0 0.0 0.0
0.0 0.0 0.0
CELL_DATA 40
SCALARS material_index double
LOOKUP_TABLE default
1.0
1.0
1.0
1.0
1.0
1.0
1.0
1.0
1.0
1.0
1.0
1.0
1.0
1.0
1.0
1.0
1.0
1.0
1.0
1.0
1.0
1.0
1.0
1.0
1.0
1.0
1.0
1.0
1.0
1.0
1.0
1.0
1.0
1.0
1.0
1.0
1.0
1.0
1.0
1.0
SCALARS material_prop_density double
LOOKUP_TABLE default
1500.0
1500.0
1500.0
1500.0
1500.0
1500.0
1500.0
1500.0
1500.0
1500.0
1500.0
1500.0
1500.0
1500.0
1500.0
1500.0
1500.0
1500.0
1500.0
1500.0
1500.0
1500.0
1500.0
1500.0
1500.0
1500.0
1500.0
1500.0
1500.0
1500.0
1500.0
1500.0
1500.0
1500.0
1500.0
1500.0
1500.0
1500.0
1500.0
1500.0
SCALARS material_prop_Young double
LOOKUP_TABLE default
30000000.0
30000000.0
30000000.0
30000000.0
30000000.0
30000000.0
30000000.0
30000000.0
30000000.0
30000000.0
30000000.0
30000000.0
30000000.0
30000000.0
30000000.0
30000000.0
30000000.0
30000000.0
30000000.0
30000000.0
30000000.0
30000000.0
30000000.0
30000000.0
30000000.0
30000000.0
30000000.0
30000000.0
30000000.0
30000000.0
30000000.0
30000000.0
30000000.0
30000000.0
30000000.0
30000000.0
30000000.0
30000000.0
30000000.0
30000000.0
SCALARS material_prop_poisson double
LOOKUP_TABLE default
0.2
0.2
0.2
0.2
0.2
0.2
0.2
0.2
0.2
0.2
0.2
0.2
0.2
0.2
0.2
0.2
0.2
0.2
0.2
0.2
0.2
0.2
0.2
0.2
0.2
0.2
0.2
0.2
0.2
0.2
0.2
0.2
0.2
0.2
0.2
0.2
0.2
0.2
0.2
0.2
