# vtk DataFile Version 2.0
data_8
ASCII
DATASET UNSTRUCTURED_GRID
POINTS 63 float
0.0 0.0 0.0
1.0 0.0 0.0
1.0 10.0 0.0
0.0 10.0 0.0
0.4999999999986921 0.0 0.0
1.0 0.499999999999551 0.0
1.0 0.9999999999991888 0.0
1.0 1.499999999998284 0.0
1.0 1.999999999996824 0.0
1.0 2.499999999995364 0.0
1.0 2.999999999993903 0.0
1.0 3.499999999992442 0.0
1.0 3.999999999991017 0.0
1.0 4.499999999991639 0.0
1.0 4.999999999992399 0.0
1.0 5.499999999993159 0.0
1.0 5.99999999999392 0.0
1.0 6.499999999994679 0.0
1.0 6.999999999995438 0.0
1.0 7.499999999996199 0.0
1.0 7.99999999999696 0.0
1.0 8.49999999999772 0.0
1.0 8.99999999999848 0.0
1.0 9.49999999999924 0.0
0.5000000000020595 10.0 0.0
0.0 9.5 0.0
0.0 8.999999999999998 0.0
0.0 8.499999999999998 0.0
0.0 7.999999999999996 0.0
0.0 7.499999999999995 0.0
0.0 6.999999999999995 0.0
0.0 6.499999999999996 0.0
0.0 5.999999999999996 0.0
0.0 5.499999999999996 0.0
0.0 4.999999999999996 0.0
0.0 4.499999999999997 0.0
0.0 3.999999999999996 0.0
0.0 3.499999999999997 0.0
0.0 2.999999999999998 0.0
0.0 2.499999999999998 0.0
0.0 1.999999999999998 0.0
0.0 1.5 0.0
0.0 0.9999999999999982 0.0
0.0 0.5 0.0
0.4999999999988605 0.4999999999997756 0.0
0.4999999999990288 0.9999999999995937 0.0
0.4999999999991972 1.499999999999142 0.0
0.4999999999993656 1.999999999998411 0.0
0.499999999999534 2.499999999997681 0.0
0.4999999999997023 2.999999999996951 0.0
0.4999999999998707 3.49999999999622 0.0
0.5000000000000391 3.999999999995507 0.0
0.5000000000002074 4.499999999995817 0.0
0.5000000000003758 4.999999999996198 0.0
0.5000000000005441 5.499999999996577 0.0
0.5000000000007125 5.999999999996958 0.0
0.500000000000881 6.499999999997339 0.0
0.5000000000010493 6.999999999997716 0.0
0.5000000000012177 7.499999999998098 0.0
0.500000000001386 7.999999999998479 0.0
0.5000000000015543 8.499999999998856 0.0
0.5000000000017226 8.99999999999924 0.0
0.5000000000018909 9.49999999999962 0.0
CELLS 40 200
4 0 4 44 43
4 43 44 45 42
4 42 45 46 41
4 41 46 47 40
4 40 47 48 39
4 39 48 49 38
4 38 49 50 37
4 37 50 51 36
4 36 51 52 35
4 35 52 53 34
4 34 53 54 33
4 33 54 55 32
4 32 55 56 31
4 31 56 57 30
4 30 57 58 29
4 29 58 59 28
4 28 59 60 27
4 27 60 61 26
4 26 61 62 25
4 25 62 24 3
4 4 1 5 44
4 44 5 6 45
4 45 6 7 46
4 46 7 8 47
4 47 8 9 48
4 48 9 10 49
4 49 10 11 50
4 50 11 12 51
4 51 12 13 52
4 52 13 14 53
4 53 14 15 54
4 54 15 16 55
4 55 16 17 56
4 56 17 18 57
4 57 18 19 58
4 58 19 20 59
4 59 20 21 60
4 60 21 22 61
4 61 22 23 62
4 62 23 2 24
CELL_TYPES 40
9
9
9
9
9
9
9
9
9
9
9
9
9
9
9
9
9
9
9
9
9
9
9
9
9
9
9
9
9
9
9
9
9
9
9
9
9
9
9
9
POINT_DATA 63
VECTORS displacement double
0.0 0.0 0.0
0.0 0.0 0.0
0.0 -0.42112707558201007 0.0
0.0 -0.42112707558153245 0.0
-1.8722198108871947e-19 0.0 0.0
0.0 -4.771769219409638e-06 0.0
0.0 -1.5000682871255561e-05 0.0
0.0 -4.164399878966071e-05 0.0
0.0 -0.00011120773569388092 0.0
0.0 -0.00028742440383515574 0.0
0.0 -0.0007167242733892332 0.0
0.0 -0.00171571868880979 0.0
0.0 -0.003918637821122534 0.0
0.0 -0.008476655059467984 0.0
0.0 -0.01721706232199515 0.0
0.0 -0.0325160092188661 0.0
0.0 -0.05653153545527869 0.0
0.0 -0.08977261944054678 0.0
0.0 -0.13013082716758473 0.0
0.0 -0.17436001057817763 0.0
0.0 -0.22082755375839766 0.0
0.0 -0.2676094538377576 0.0
0.0 -0.31175803200644303 0.0
0.0 -0.35814302280954363 0.0
3.9763298961323417e-14 -0.38313166535056103 0.0
0.0 -0.35814302280950805 0.0
0.0 -0.3117580320065623 0.0
0.0 -0.26760945383796314 0.0
0.0 -0.22082755375868915 0.0
0.0 -0.17436001057852724 0.0
0.0 -0.13013082716797528 0.0
0.0 -0.08977261944094467 0.0
0.0 -0.056531535455630014 0.0
0.0 -0.03251600921913331 0.0
0.0 -0.01721706232217307 0.0
0.0 -0.008476655059573861 0.0
0.0 -0.003918637821178853 0.0
0.0 -0.0017157186888313936 0.0
0.0 -0.0007167242733966032 0.0
0.0 -0.0002874244038373961 0.0
0.0 -0.00011120773569445461 0.0
0.0 -4.1643998789761144e-05 0.0
0.0 -1.5000682871267354e-05 0.0
0.0 -4.771769219411892e-06 0.0
-6.125788713361964e-19 -4.7717692194107644e-06 0.0
-8.257864647999327e-19 -1.5000682871261462e-05 0.0
8.375953831731249e-19 -4.164399878971093e-05 0.0
3.2621360531163042e-18 -0.0001112077356941678 0.0
1.877884462910538e-17 -0.0002874244038362759 0.0
8.212234365920237e-17 -0.0007167242733929185 0.0
2.7324798666676283e-16 -0.0017157186888205839 0.0
-6.474950972780051e-17 -0.003918637821151274 0.0
1.191335045402408e-16 -0.008476655059483739 0.0
-3.695689543652912e-17 -0.017217062324206 0.0
-3.7766886528418427e-16 -0.032516009116162016 0.0
-6.941312273981289e-16 -0.05653153938941177 0.0
-4.487454717610832e-16 -0.08977251614954529 0.0
9.799197141404051e-16 -0.13013216452969925 0.0
1.9289752098782327e-15 -0.1743553535327416 0.0
-1.3811871270528547e-15 -0.22079000469201213 0.0
-2.7215422692126356e-15 -0.2678084919738222 0.0
-3.0910531739225527e-15 -0.3120490534100084 0.0
-4.000517747494777e-14 -0.354796947601398 0.0
VECTORS velocity double
0.0 0.0 0.0
0.0 0.0 0.0
0.0 -12.44951033196962 0.0
0.0 -12.449510331970746 0.0
-5.426832445534331e-17 0.0 0.0
0.0 -0.001432858088647033 0.0
0.0 -0.004429035109845204 0.0
0.0 -0.012018634127176664 0.0
0.0 -0.031229842515435327 0.0
0.0 -0.07814877317441143 0.0
0.0 -0.18750273480332025 0.0
0.0 -0.4284039434199481 0.0
0.0 -0.9239729018757351 0.0
0.0 -1.8604598818589793 0.0
0.0 -3.4488876744025756 0.0
0.0 -5.785859550810756 0.0
0.0 -8.614320348956587 0.0
0.0 -11.201072180385113 0.0
0.0 -12.791375360258634 0.0
0.0 -13.561001325678115 0.0
0.0 -14.125879581050153 0.0
0.0 -13.560216898634353 0.0
0.0 -13.053988846302593 0.0
0.0 -14.301533691142694 0.0
3.1125292049075045e-12 -13.656177952573763 0.0
0.0 -14.301533691131024 0.0
0.0 -13.053988846301213 0.0
0.0 -13.560216898626896 0.0
0.0 -14.12587958104956 0.0
0.0 -13.561001325684055 0.0
0.0 -12.791375360268692 0.0
0.0 -11.201072180407772 0.0
0.0 -8.614320348991123 0.0
0.0 -5.785859550847331 0.0
0.0 -3.4488876744326764 0.0
0.0 -1.860459881879681 0.0
0.0 -0.9239729018879688 0.0
0.0 -0.42840394342504245 0.0
0.0 -0.1875027348051753 0.0
0.0 -0.07814877317500485 0.0
0.0 -0.031229842515593954 0.0
0.0 -0.012018634127205698 0.0
0.0 -0.0044290351098488275 0.0
0.0 -0.001432858088647749 0.0
-1.7128754480657946e-16 -0.0014328580886473906 0.0
-2.0415565240470365e-16 -0.0044290351098470165 0.0
2.9569303403935623e-16 -0.012018634127191181 0.0
1.0026037651267677e-15 -0.031229842515514653 0.0
4.951235456048135e-15 -0.0781487731747081 0.0
1.8709329841286538e-14 -0.18750273480424784 0.0
5.037386698180322e-14 -0.4284039434224917 0.0
-3.214647961374433e-14 -0.9239729018821018 0.0
-1.2202940653361319e-14 -1.8604598818530216 0.0
-6.622618948938752e-14 -3.44888767536701 0.0
-1.2197641693617634e-13 -5.785859503420924 0.0
-7.444032162632416e-14 -8.614322256531356 0.0
2.1196441008064247e-13 -11.20101676261577 0.0
5.677916030398241e-13 -12.792317765266551 0.0
-3.0486119571417586e-13 -13.55357639098957 0.0
-1.580197335179945e-12 -14.13444258747896 0.0
1.298460204904802e-12 -13.729177859192744 0.0
-4.070036416823894e-14 -12.583379721952872 0.0
-2.800011669558535e-12 -13.378221291078464 0.0
VECTORS boundary_conditions double
1.0 1.0 0.0
1.0 1.0 0.0
1.0 0.0 0.0
1.0 0.0 0.0
0.0 1.0 0.0
1.0 0.0 0.0
1.0 0.0 0.0
1.0 0.0 0.0
1.0 0.0 0.0
1.0 0.0 0.0
1.0 0.0 0.0
1.0 0.0 0.0
1.0 0.0 0.0
1.0 0.0 0.0
1.0 0.0 0.0
1.0 0.0 0.0
1.0 0.0 0.0
1.0 0.0 0.0
1.0 0.0 0.0
1.0 0.0 0.0
1.0 0.0 0.0
1.0 0.0 0.0
1.0 0.0 0.0
1.0 0.0 0.0
0.0 0.0 0.0
1.0 0.0 0.0
1.0 0.0 0.0
1.0 0.0 0.0
1.0 0.0 0.0
1.0 0.0 0.0
1.0 0.0 0.0
1.0 0.0 0.0
1.0 0.0 0.0
1.0 0.0 0.0
1.0 0.0 0.0
1.0 0.0 0.0
1.0 0.0 0.0
1.0 0.0 0.0
1.0 0.0 0.0
1.0 0.0 0.0
1.0 0.0 0.0
1.0 0.0 0.0
1.0 0.0 0.0
1.0 0.0 0.0
0.0 0.0 0.0
0.0 0.0 0.0
0.0 0.0 0.0
0.0 0.0 0.0
0.0 0.0 0.0
0.0 0.0 0.0
0.0 0.0 0.0
0.0 0.0 0.0
0.0 0.0 0.0
0.0 0.0 0.0
0.0 0.0 0.0
0.0 0.0 0.0
0.0 0.0 0.0
0.0 0.0 0.0
0.0 0.0 0.0
0.0 0.0 0.0
0.0 0.0 0.0
0.0 0.0 0.0
0.0 0.0 0.0
CELL_DATA 40
SCALARS material_index double
LOOKUP_TABLE default
1.0
1.0
1.0
1.0
1.0
1.0
1.0
1.0
1.0
1.0
1.0
1.0
1.0
1.0
1.0
1.0
1.0
1.0
1.0
1.0
1.0
1.0
1.0
1.0
1.0
1.0
1.0
1.0
1.0
1.0
1.0
1.0
1.0
1.0
1.0
1.0
1.0
1.0
1.0
1.0
SCALARS material_prop_density double
LOOKUP_TABLE default
1500.0
1500.0
1500.0
1500.0
1500.0
1500.0
1500.0
1500.0
1500.0
1500.0
1500.0
1500.0
1500.0
1500.0
1500.0
1500.0
1500.0
1500.0
1500.0
1500.0
1500.0
1500.0
1500.0
1500.0
1500.0
1500.0
1500.0
1500.0
1500.0
1500.0
1500.0
1500.0
1500.0
1500.0
1500.0
1500.0
1500.0
1500.0
1500.0
1500.0
SCALARS material_prop_Young double
LOOKUP_TABLE default
30000000.0
30000000.0
30000000.0
30000000.0
30000000.0
30000000.0
30000000.0
30000000.0
30000000.0
30000000.0
30000000.0
30000000.0
30000000.0
30000000.0
30000000.0
30000000.0
30000000.0
30000000.0
30000000.0
30000000.0
30000000.0
30000000.0
30000000.0
30000000.0
30000000.0
30000000.0
30000000.0
30000000.0
30000000.0
30000000.0
30000000.0
30000000.0
30000000.0
30000000.0
30000000.0
30000000.0
30000000.0
30000000.0
30000000.0
30000000.0
SCALARS material_prop_poisson double
LOOKUP_TABLE default
0.2
0.2
0.2
0.2
0.2
0.2
0.2
0.2
0.2
0.2
0.2
0.2
0.2
0.2
0.2
0.2
0.2
0.2
0.2
0.2
0.2
0.2
0.2
0.2
0.2
0.2
0.2
0.2
0.2
0.2
0.2
0.2
0.2
0.2
0.2
0.2
0.2
0.2
0.2
0.2
