# vtk DataFile Version 2.0
data_163
ASCII
DATASET UNSTRUCTURED_GRID
POINTS 63 float
0.0 0.0 0.0
1.0 0.0 0.0
1.0 10.0 0.0
0.0 10.0 0.0
0.4999999999986921 0.0 0.0
1.0 0.499999999999551 0.0
1.0 0.9999999999991888 0.0
1.0 1.499999999998284 0.0
1.0 1.999999999996824 0.0
1.0 2.499999999995364 0.0
1.0 2.999999999993903 0.0
1.0 3.499999999992442 0.0
1.0 3.999999999991017 0.0
1.0 4.499999999991639 0.0
1.0 4.999999999992399 0.0
1.0 5.499999999993159 0.0
1.0 5.99999999999392 0.0
1.0 6.499999999994679 0.0
1.0 6.999999999995438 0.0
1.0 7.499999999996199 0.0
1.0 7.99999999999696 0.0
1.0 8.49999999999772 0.0
1.0 8.99999999999848 0.0
1.0 9.49999999999924 0.0
0.5000000000020595 10.0 0.0
0.0 9.5 0.0
0.0 8.999999999999998 0.0
0.0 8.499999999999998 0.0
0.0 7.999999999999996 0.0
0.0 7.499999999999995 0.0
0.0 6.999999999999995 0.0
0.0 6.499999999999996 0.0
0.0 5.999999999999996 0.0
0.0 5.499999999999996 0.0
0.0 4.999999999999996 0.0
0.0 4.499999999999997 0.0
0.0 3.999999999999996 0.0
0.0 3.499999999999997 0.0
0.0 2.999999999999998 0.0
0.0 2.499999999999998 0.0
0.0 1.999999999999998 0.0
0.0 1.5 0.0
0.0 0.9999999999999982 0.0
0.0 0.5 0.0
0.4999999999988605 0.4999999999997756 0.0
0.4999999999990288 0.9999999999995937 0.0
0.4999999999991972 1.499999999999142 0.0
0.4999999999993656 1.999999999998411 0.0
0.499999999999534 2.499999999997681 0.0
0.4999999999997023 2.999999999996951 0.0
0.4999999999998707 3.49999999999622 0.0
0.5000000000000391 3.999999999995507 0.0
0.5000000000002074 4.499999999995817 0.0
0.5000000000003758 4.999999999996198 0.0
0.5000000000005441 5.499999999996577 0.0
0.5000000000007125 5.999999999996958 0.0
0.500000000000881 6.499999999997339 0.0
0.5000000000010493 6.999999999997716 0.0
0.5000000000012177 7.499999999998098 0.0
0.500000000001386 7.999999999998479 0.0
0.5000000000015543 8.499999999998856 0.0
0.5000000000017226 8.99999999999924 0.0
0.5000000000018909 9.49999999999962 0.0
CELLS 40 200
4 0 4 44 43
4 43 44 45 42
4 42 45 46 41
4 41 46 47 40
4 40 47 48 39
4 39 48 49 38
4 38 49 50 37
4 37 50 51 36
4 36 51 52 35
4 35 52 53 34
4 34 53 54 33
4 33 54 55 32
4 32 55 56 31
4 31 56 57 30
4 30 57 58 29
4 29 58 59 28
4 28 59 60 27
4 27 60 61 26
4 26 61 62 25
4 25 62 24 3
4 4 1 5 44
4 44 5 6 45
4 45 6 7 46
4 46 7 8 47
4 47 8 9 48
4 48 9 10 49
4 49 10 11 50
4 50 11 12 51
4 51 12 13 52
4 52 13 14 53
4 53 14 15 54
4 54 15 16 55
4 55 16 17 56
4 56 17 18 57
4 57 18 19 58
4 58 19 20 59
4 59 20 21 60
4 60 21 22 61
4 61 22 23 62
4 62 23 2 24
CELL_TYPES 40
9
9
9
9
9
9
9
9
9
9
9
9
9
9
9
9
9
9
9
9
9
9
9
9
9
9
9
9
9
9
9
9
9
9
9
9
9
9
9
9
POINT_DATA 63
VECTORS displacement double
0.0 0.0 0.0
0.0 0.0 0.0
0.0 -0.17207942005627694 0.0
0.0 -0.1720794200558119 0.0
-1.1950699078859675e-15 0.0 0.0
0.0 -0.008077113437197341 0.0
0.0 -0.014622428492379382 0.0
0.0 -0.01864175937146405 0.0
0.0 -0.019731831161389234 0.0
0.0 -0.018147992279940905 0.0
0.0 -0.014477529763062115 0.0
0.0 -0.009474373484582825 0.0
0.0 -0.0038483753144950414 0.0
0.0 0.0016731651717254259 0.0
0.0 0.006300692294628868 0.0
0.0 0.009144837656175693 0.0
0.0 0.009359876794271338 0.0
0.0 0.006194520074912297 0.0
0.0 -0.0009177065686009255 0.0
0.0 -0.012391515409474715 0.0
0.0 -0.02871559992605432 0.0
0.0 -0.05043243343897347 0.0
0.0 -0.0782165363995368 0.0
0.0 -0.11347527764124579 0.0
3.9256045058744364e-14 -0.13590625304342577 0.0
0.0 -0.11347527764119945 0.0
0.0 -0.07821653639961237 0.0
0.0 -0.05043243343908068 0.0
0.0 -0.028715599926166374 0.0
0.0 -0.012391515409577203 0.0
0.0 -0.0009177065686836422 0.0
0.0 0.006194520074858626 0.0
0.0 0.009359876794255664 0.0
0.0 0.009144837656199792 0.0
0.0 0.006300692294688529 0.0
0.0 0.0016731651718119897 0.0
0.0 -0.003848375314392435 0.0
0.0 -0.009474373484500857 0.0
0.0 -0.01447752976300905 0.0
0.0 -0.018147992279917445 0.0
0.0 -0.019731831161388786 0.0
0.0 -0.018641759371474494 0.0
0.0 -0.014622428492387951 0.0
0.0 -0.00807711343720328 0.0
-2.4903966966194047e-16 -0.00806384069353317 0.0
4.3115828925019895e-16 -0.014606068750079438 0.0
5.482842400430641e-16 -0.01862059004844722 0.0
2.1247723703622765e-16 -0.019726259878539536 0.0
3.1306455277629106e-16 -0.018145762752267786 0.0
-1.5393938079346426e-16 -0.014489497144741617 0.0
-3.863810634431954e-16 -0.009482594222333461 0.0
3.360827730183615e-16 -0.0038516868667470886 0.0
-3.967216917560165e-16 0.001670629745363187 0.0
-6.786310390625684e-16 0.006301753519107928 0.0
-5.359418379960318e-16 0.009128898859752616 0.0
2.6006830899507435e-16 0.00934263300235576 0.0
3.4345614835800216e-16 0.006180612092710126 0.0
-1.403042265621941e-16 -0.0009211629138243915 0.0
-5.030213501073766e-18 -0.01238561665008653 0.0
-5.775038752503395e-18 -0.02871952188117939 0.0
-1.190740180991628e-15 -0.05044618711201295 0.0
-6.9850142812526625e-15 -0.07812019299371487 0.0
-3.832981280143359e-14 -0.11165975645538664 0.0
VECTORS velocity double
0.0 0.0 0.0
0.0 0.0 0.0
0.0 2.8469200498367773 0.0
0.0 2.846920049837811 0.0
-3.955324286526639e-13 0.0 0.0
0.0 0.34330049847311606 0.0
0.0 0.6049741521201952 0.0
0.0 0.7005818152504906 0.0
0.0 0.584767794771111 0.0
0.0 0.18651544388871932 0.0
0.0 -0.47936202400119443 0.0
0.0 -1.2590649015452025 0.0
0.0 -2.0497017223353087 0.0
0.0 -2.659395977050707 0.0
0.0 -2.9026249284278087 0.0
0.0 -2.678853689821297 0.0
0.0 -2.0261264240367693 0.0
0.0 -1.0618576980200942 0.0
0.0 0.07889782546839896 0.0
0.0 1.1612329615793415 0.0
0.0 2.0165338884297848 0.0
0.0 2.5498136253872445 0.0
0.0 2.7863749086291545 0.0
0.0 2.8427510529850792 0.0
3.7784856649580887e-13 2.8631667592437573 0.0
0.0 2.842751052985774 0.0
0.0 2.786374908629826 0.0
0.0 2.5498136253891914 0.0
0.0 2.016533888435072 0.0
0.0 1.1612329615878902 0.0
0.0 0.07889782547878799 0.0
0.0 -1.061857698009147 0.0
0.0 -2.0261264240272383 0.0
0.0 -2.678853689814942 0.0
0.0 -2.902624928427599 0.0
0.0 -2.6593959770581197 0.0
0.0 -2.0497017223481464 0.0
0.0 -1.2590649015568878 0.0
0.0 -0.4793620240101162 0.0
0.0 0.18651544388381747 0.0
0.0 0.584767794769887 0.0
0.0 0.7005818152504324 0.0
0.0 0.604974152120892 0.0
0.0 0.3433004984742665 0.0
1.2034345302047514e-14 0.3459885353910316 0.0
2.152478881868778e-13 0.6060901373805648 0.0
-3.318094220746442e-14 0.7070558693816844 0.0
1.0737328583080031e-13 0.5859758120463228 0.0
8.209275471377359e-14 0.18700468244252133 0.0
-3.281718611104391e-13 -0.4861895609196172 0.0
-1.311477090730358e-13 -1.271286575700153 0.0
-6.80324155574266e-15 -2.060575912597831 0.0
1.3834202088303945e-13 -2.6642835554435473 0.0
-1.4046302916063954e-15 -2.901056424629971 0.0
2.2213485147887825e-13 -2.666668564649801 0.0
3.0604270109815504e-13 -2.026469350200908 0.0
-2.9068879970586894e-14 -1.0588832915180035 0.0
-1.757814213156215e-13 0.07624161311179556 0.0
-6.140685737565293e-14 1.1660991811244559 0.0
-3.4710899943462937e-13 2.0344667739219826 0.0
-6.147304322743019e-14 2.5570157114189973 0.0
-3.06646687898739e-13 2.7807383888548856 0.0
2.6578188755315744e-13 2.8501808200186485 0.0
VECTORS boundary_conditions double
1.0 1.0 0.0
1.0 1.0 0.0
1.0 0.0 0.0
1.0 0.0 0.0
0.0 1.0 0.0
1.0 0.0 0.0
1.0 0.0 0.0
1.0 0.0 0.0
1.0 0.0 0.0
1.0 0.0 0.0
1.0 0.0 0.0
1.0 0.0 0.0
1.0 0.0 0.0
1.0 0.0 0.0
1.0 0.0 0.0
1.0 0.0 0.0
1.0 0.0 0.0
1.0 0.0 0.0
1.0 0.0 0.0
1.0 0.0 0.0
1.0 0.0 0.0
1.0 0.0 0.0
1.0 0.0 0.0
1.0 0.0 0.0
0.0 0.0 0.0
1.0 0.0 0.0
1.0 0.0 0.0
1.0 0.0 0.0
1.0 0.0 0.0
1.0 0.0 0.0
1.0 0.0 0.0
1.0 0.0 0.0
1.0 0.0 0.0
1.0 0.0 0.0
1.0 0.0 0.0
1.0 0.0 0.0
1.0 0.0 0.0
1.0 0.0 0.0
1.0 0.0 0.0
1.0 0.0 0.0
1.0 0.0 0.0
1.0 0.0 0.0
1.0 0.0 0.0
1.0 0.0 0.0
0.0 0.0 0.0
0.0 0.0 0.0
0.0 0.0 0.0
0.0 0.0 0.0
0.0 0.0 0.0
0.0 0.0 0.0
0.0 0.0 0.0
0.0 0.0 0.0
0.0 0.0 0.0
0.0 0.0 0.0
0.0 0.0 0.0
0.0 0.0 0.0
0.0 0.0 0.0
0.0 0.0 0.0
0.0 0.0 0.0
0.0 0.0 0.0
0.0 0.0 0.0
0.0 0.0 0.0
0.0 0.0 0.0
CELL_DATA 40
SCALARS material_index double
LOOKUP_TABLE default
1.0
1.0
1.0
1.0
1.0
1.0
1.0
1.0
1.0
1.0
1.0
1.0
1.0
1.0
1.0
1.0
1.0
1.0
1.0
1.0
1.0
1.0
1.0
1.0
1.0
1.0
1.0
1.0
1.0
1.0
1.0
1.0
1.0
1.0
1.0
1.0
1.0
1.0
1.0
1.0
SCALARS material_prop_density double
LOOKUP_TABLE default
1500.0
1500.0
1500.0
1500.0
1500.0
1500.0
1500.0
1500.0
1500.0
1500.0
1500.0
1500.0
1500.0
1500.0
1500.0
1500.0
1500.0
1500.0
1500.0
1500.0
1500.0
1500.0
1500.0
1500.0
1500.0
1500.0
1500.0
1500.0
1500.0
1500.0
1500.0
1500.0
1500.0
1500.0
1500.0
1500.0
1500.0
1500.0
1500.0
1500.0
SCALARS material_prop_Young double
LOOKUP_TABLE default
30000000.0
30000000.0
30000000.0
30000000.0
30000000.0
30000000.0
30000000.0
30000000.0
30000000.0
30000000.0
30000000.0
30000000.0
30000000.0
30000000.0
30000000.0
30000000.0
30000000.0
30000000.0
30000000.0
30000000.0
30000000.0
30000000.0
30000000.0
30000000.0
30000000.0
30000000.0
30000000.0
30000000.0
30000000.0
30000000.0
30000000.0
30000000.0
30000000.0
30000000.0
30000000.0
30000000.0
30000000.0
30000000.0
30000000.0
30000000.0
SCALARS material_prop_poisson double
LOOKUP_TABLE default
0.2
0.2
0.2
0.2
0.2
0.2
0.2
0.2
0.2
0.2
0.2
0.2
0.2
0.2
0.2
0.2
0.2
0.2
0.2
0.2
0.2
0.2
0.2
0.2
0.2
0.2
0.2
0.2
0.2
0.2
0.2
0.2
0.2
0.2
0.2
0.2
0.2
0.2
0.2
0.2
