# vtk DataFile Version 2.0
data_126
ASCII
DATASET UNSTRUCTURED_GRID
POINTS 63 float
0.0 0.0 0.0
1.0 0.0 0.0
1.0 10.0 0.0
0.0 10.0 0.0
0.4999999999986921 0.0 0.0
1.0 0.499999999999551 0.0
1.0 0.9999999999991888 0.0
1.0 1.499999999998284 0.0
1.0 1.999999999996824 0.0
1.0 2.499999999995364 0.0
1.0 2.999999999993903 0.0
1.0 3.499999999992442 0.0
1.0 3.999999999991017 0.0
1.0 4.499999999991639 0.0
1.0 4.999999999992399 0.0
1.0 5.499999999993159 0.0
1.0 5.99999999999392 0.0
1.0 6.499999999994679 0.0
1.0 6.999999999995438 0.0
1.0 7.499999999996199 0.0
1.0 7.99999999999696 0.0
1.0 8.49999999999772 0.0
1.0 8.99999999999848 0.0
1.0 9.49999999999924 0.0
0.5000000000020595 10.0 0.0
0.0 9.5 0.0
0.0 8.999999999999998 0.0
0.0 8.499999999999998 0.0
0.0 7.999999999999996 0.0
0.0 7.499999999999995 0.0
0.0 6.999999999999995 0.0
0.0 6.499999999999996 0.0
0.0 5.999999999999996 0.0
0.0 5.499999999999996 0.0
0.0 4.999999999999996 0.0
0.0 4.499999999999997 0.0
0.0 3.999999999999996 0.0
0.0 3.499999999999997 0.0
0.0 2.999999999999998 0.0
0.0 2.499999999999998 0.0
0.0 1.999999999999998 0.0
0.0 1.5 0.0
0.0 0.9999999999999982 0.0
0.0 0.5 0.0
0.4999999999988605 0.4999999999997756 0.0
0.4999999999990288 0.9999999999995937 0.0
0.4999999999991972 1.499999999999142 0.0
0.4999999999993656 1.999999999998411 0.0
0.499999999999534 2.499999999997681 0.0
0.4999999999997023 2.999999999996951 0.0
0.4999999999998707 3.49999999999622 0.0
0.5000000000000391 3.999999999995507 0.0
0.5000000000002074 4.499999999995817 0.0
0.5000000000003758 4.999999999996198 0.0
0.5000000000005441 5.499999999996577 0.0
0.5000000000007125 5.999999999996958 0.0
0.500000000000881 6.499999999997339 0.0
0.5000000000010493 6.999999999997716 0.0
0.5000000000012177 7.499999999998098 0.0
0.500000000001386 7.999999999998479 0.0
0.5000000000015543 8.499999999998856 0.0
0.5000000000017226 8.99999999999924 0.0
0.5000000000018909 9.49999999999962 0.0
CELLS 40 200
4 0 4 44 43
4 43 44 45 42
4 42 45 46 41
4 41 46 47 40
4 40 47 48 39
4 39 48 49 38
4 38 49 50 37
4 37 50 51 36
4 36 51 52 35
4 35 52 53 34
4 34 53 54 33
4 33 54 55 32
4 32 55 56 31
4 31 56 57 30
4 30 57 58 29
4 29 58 59 28
4 28 59 60 27
4 27 60 61 26
4 26 61 62 25
4 25 62 24 3
4 4 1 5 44
4 44 5 6 45
4 45 6 7 46
4 46 7 8 47
4 47 8 9 48
4 48 9 10 49
4 49 10 11 50
4 50 11 12 51
4 51 12 13 52
4 52 13 14 53
4 53 14 15 54
4 54 15 16 55
4 55 16 17 56
4 56 17 18 57
4 57 18 19 58
4 58 19 20 59
4 59 20 21 60
4 60 21 22 61
4 61 22 23 62
4 62 23 2 24
CELL_TYPES 40
9
9
9
9
9
9
9
9
9
9
9
9
9
9
9
9
9
9
9
9
9
9
9
9
9
9
9
9
9
9
9
9
9
9
9
9
9
9
9
9
POINT_DATA 63
VECTORS displacement double
0.0 0.0 0.0
0.0 0.0 0.0
0.0 -1.13437432699365 0.0
0.0 -1.1343743269931876 0.0
-1.7917952322612634e-16 0.0 0.0
0.0 -0.07650712086979393 0.0
0.0 -0.1519086679983529 0.0
0.0 -0.2255278376083746 0.0
0.0 -0.2969677621493151 0.0
0.0 -0.3660779633582655 0.0
0.0 -0.4326741945235815 0.0
0.0 -0.4961988365469385 0.0
0.0 -0.555696011950981 0.0
0.0 -0.6106670240981896 0.0
0.0 -0.660897816657335 0.0
0.0 -0.7070477670726926 0.0
0.0 -0.7505874920888921 0.0
0.0 -0.7930441242102326 0.0
0.0 -0.835836314988789 0.0
0.0 -0.8801836189822416 0.0
0.0 -0.9264048247137848 0.0
0.0 -0.9741464529075308 0.0
0.0 -1.0224794636871857 0.0
0.0 -1.071087002336192 0.0
3.669478286177712e-14 -1.0981760148448576 0.0
0.0 -1.0710870023361625 0.0
0.0 -1.022479463687314 0.0
0.0 -0.9741464529077468 0.0
0.0 -0.9264048247140695 0.0
0.0 -0.8801836189825831 0.0
0.0 -0.8358363149891841 0.0
0.0 -0.7930441242106835 0.0
0.0 -0.7505874920894119 0.0
0.0 -0.7070477670732995 0.0
0.0 -0.6608978166580612 0.0
0.0 -0.610667024099068 0.0
0.0 -0.5556960119520089 0.0
0.0 -0.49619883654787056 0.0
0.0 -0.43267419452437966 0.0
0.0 -0.3660779633588982 0.0
0.0 -0.29696776214976356 0.0
0.0 -0.22552783760862571 0.0
0.0 -0.15190866799847394 0.0
0.0 -0.07650712086986196 0.0
-8.134982026008188e-17 -0.07650375267480225 0.0
2.1070329696974732e-16 -0.15189317561294838 0.0
3.7241433750858264e-16 -0.22553994524326068 0.0
-2.5813839258247273e-16 -0.29695266343826937 0.0
8.588543758232964e-18 -0.36606365304426275 0.0
-3.7627059250213396e-16 -0.4326474419665133 0.0
-5.575568713392476e-16 -0.4961809587974479 0.0
1.4028817348200653e-15 -0.5557567598239339 0.0
-4.751156906319769e-16 -0.6107024883589461 0.0
-1.024794720667119e-15 -0.6609029262348274 0.0
2.7508272439209173e-16 -0.707060918218546 0.0
6.663391097897123e-16 -0.7506195502846523 0.0
-3.9740312209451054e-16 -0.7930450881590188 0.0
1.5848761594655033e-16 -0.8358352055137406 0.0
4.0584519895202255e-16 -0.8801769891549702 0.0
3.394309729407478e-16 -0.9263968267128181 0.0
-1.2486105259423142e-15 -0.9741260676516854 0.0
-6.190259139576838e-15 -1.0223735525717876 0.0
-3.782087607795227e-14 -1.06925539782228 0.0
VECTORS velocity double
0.0 0.0 0.0
0.0 0.0 0.0
0.0 -13.98260641206289 0.0
0.0 -13.982606412065081 0.0
2.3187996700714595e-13 0.0 0.0
0.0 -2.6829342650934374 0.0
0.0 -5.222482755773833 0.0
0.0 -7.477249983201587 0.0
0.0 -9.317722430938808 0.0
0.0 -10.586350665090539 0.0
0.0 -11.4087533553126 0.0
0.0 -11.789241512189513 0.0
0.0 -11.835156342575862 0.0
0.0 -11.704165774679637 0.0
0.0 -11.639371016644652 0.0
0.0 -11.667441713727154 0.0
0.0 -11.705191038225237 0.0
0.0 -11.822496958104463 0.0
0.0 -11.99305421845802 0.0
0.0 -12.262814613256324 0.0
0.0 -12.584075519733288 0.0
0.0 -13.056819263761557 0.0
0.0 -13.500037742582407 0.0
0.0 -13.853316876575477 0.0
-7.877768751779501e-13 -13.97693899674941 0.0
0.0 -13.853316876576713 0.0
0.0 -13.5000377425845 0.0
0.0 -13.056819263764776 0.0
0.0 -12.584075519736789 0.0
0.0 -12.26281461325835 0.0
0.0 -11.993054218459907 0.0
0.0 -11.822496958106305 0.0
0.0 -11.705191038225843 0.0
0.0 -11.667441713726994 0.0
0.0 -11.639371016645814 0.0
0.0 -11.704165774678227 0.0
0.0 -11.835156342574063 0.0
0.0 -11.789241512192511 0.0
0.0 -11.40875335532019 0.0
0.0 -10.586350665100346 0.0
0.0 -9.317722430948345 0.0
0.0 -7.477249983208834 0.0
0.0 -5.222482755777431 0.0
0.0 -2.6829342650956276 0.0
-2.1906812092414912e-13 -2.6632590041526853 0.0
-1.7679328627255142e-13 -5.175536446239055 0.0
2.066852582609225e-13 -7.470279320616504 0.0
-3.332552192760945e-13 -9.324417065928355 0.0
6.750727708486462e-13 -10.618231553354784 0.0
2.393987249915964e-13 -11.437183286288798 0.0
-5.529632553208204e-13 -11.78482980692932 0.0
-1.412986298017022e-13 -11.822840365474697 0.0
-4.69271197033681e-14 -11.734982930556008 0.0
2.301692837768522e-13 -11.640973432933311 0.0
-1.8700565679957096e-13 -11.637056179811978 0.0
5.321247442799091e-13 -11.696225530578964 0.0
2.653145342115234e-13 -11.8078505946264 0.0
-5.049249800002222e-13 -11.979121440290154 0.0
2.4864762716787983e-13 -12.239053141388421 0.0
1.6440976422155195e-14 -12.576026173377635 0.0
-3.7616356457200905e-13 -13.036409568793566 0.0
-2.5678264793659115e-13 -13.493027183538729 0.0
3.5649641975211174e-13 -13.834343201666272 0.0
VECTORS boundary_conditions double
1.0 1.0 0.0
1.0 1.0 0.0
1.0 0.0 0.0
1.0 0.0 0.0
0.0 1.0 0.0
1.0 0.0 0.0
1.0 0.0 0.0
1.0 0.0 0.0
1.0 0.0 0.0
1.0 0.0 0.0
1.0 0.0 0.0
1.0 0.0 0.0
1.0 0.0 0.0
1.0 0.0 0.0
1.0 0.0 0.0
1.0 0.0 0.0
1.0 0.0 0.0
1.0 0.0 0.0
1.0 0.0 0.0
1.0 0.0 0.0
1.0 0.0 0.0
1.0 0.0 0.0
1.0 0.0 0.0
1.0 0.0 0.0
0.0 0.0 0.0
1.0 0.0 0.0
1.0 0.0 0.0
1.0 0.0 0.0
1.0 0.0 0.0
1.0 0.0 0.0
1.0 0.0 0.0
1.0 0.0 0.0
1.0 0.0 0.0
1.0 0.0 0.0
1.0 0.0 0.0
1.0 0.0 0.0
1.0 0.0 0.0
1.0 0.0 0.0
1.0 0.0 0.0
1.0 0.0 0.0
1.0 0.0 0.0
1.0 0.0 0.0
1.0 0.0 0.0
1.0 0.0 0.0
0.0 0.0 0.0
0.0 0.0 0.0
0.0 0.0 0.0
0.0 0.0 0.0
0.0 0.0 0.0
0.0 0.0 0.0
0.0 0.0 0.0
0.0 0.0 0.0
0.0 0.0 0.0
0.0 0.0 0.0
0.0 0.0 0.0
0.0 0.0 0.0
0.0 0.0 0.0
0.0 0.0 0.0
0.0 0.0 0.0
0.0 0.0 0.0
0.0 0.0 0.0
0.0 0.0 0.0
0.0 0.0 0.0
CELL_DATA 40
SCALARS material_index double
LOOKUP_TABLE default
1.0
1.0
1.0
1.0
1.0
1.0
1.0
1.0
1.0
1.0
1.0
1.0
1.0
1.0
1.0
1.0
1.0
1.0
1.0
1.0
1.0
1.0
1.0
1.0
1.0
1.0
1.0
1.0
1.0
1.0
1.0
1.0
1.0
1.0
1.0
1.0
1.0
1.0
1.0
1.0
SCALARS material_prop_density double
LOOKUP_TABLE default
1500.0
1500.0
1500.0
1500.0
1500.0
1500.0
1500.0
1500.0
1500.0
1500.0
1500.0
1500.0
1500.0
1500.0
1500.0
1500.0
1500.0
1500.0
1500.0
1500.0
1500.0
1500.0
1500.0
1500.0
1500.0
1500.0
1500.0
1500.0
1500.0
1500.0
1500.0
1500.0
1500.0
1500.0
1500.0
1500.0
1500.0
1500.0
1500.0
1500.0
SCALARS material_prop_Young double
LOOKUP_TABLE default
30000000.0
30000000.0
30000000.0
30000000.0
30000000.0
30000000.0
30000000.0
30000000.0
30000000.0
30000000.0
30000000.0
30000000.0
30000000.0
30000000.0
30000000.0
30000000.0
30000000.0
30000000.0
30000000.0
30000000.0
30000000.0
30000000.0
30000000.0
30000000.0
30000000.0
30000000.0
30000000.0
30000000.0
30000000.0
30000000.0
30000000.0
30000000.0
30000000.0
30000000.0
30000000.0
30000000.0
30000000.0
30000000.0
30000000.0
30000000.0
SCALARS material_prop_poisson double
LOOKUP_TABLE default
0.2
0.2
0.2
0.2
0.2
0.2
0.2
0.2
0.2
0.2
0.2
0.2
0.2
0.2
0.2
0.2
0.2
0.2
0.2
0.2
0.2
0.2
0.2
0.2
0.2
0.2
0.2
0.2
0.2
0.2
0.2
0.2
0.2
0.2
0.2
0.2
0.2
0.2
0.2
0.2
