# vtk DataFile Version 2.0
data_106
ASCII
DATASET UNSTRUCTURED_GRID
POINTS 63 float
0.0 0.0 0.0
1.0 0.0 0.0
1.0 10.0 0.0
0.0 10.0 0.0
0.4999999999986921 0.0 0.0
1.0 0.499999999999551 0.0
1.0 0.9999999999991888 0.0
1.0 1.499999999998284 0.0
1.0 1.999999999996824 0.0
1.0 2.499999999995364 0.0
1.0 2.999999999993903 0.0
1.0 3.499999999992442 0.0
1.0 3.999999999991017 0.0
1.0 4.499999999991639 0.0
1.0 4.999999999992399 0.0
1.0 5.499999999993159 0.0
1.0 5.99999999999392 0.0
1.0 6.499999999994679 0.0
1.0 6.999999999995438 0.0
1.0 7.499999999996199 0.0
1.0 7.99999999999696 0.0
1.0 8.49999999999772 0.0
1.0 8.99999999999848 0.0
1.0 9.49999999999924 0.0
0.5000000000020595 10.0 0.0
0.0 9.5 0.0
0.0 8.999999999999998 0.0
0.0 8.499999999999998 0.0
0.0 7.999999999999996 0.0
0.0 7.499999999999995 0.0
0.0 6.999999999999995 0.0
0.0 6.499999999999996 0.0
0.0 5.999999999999996 0.0
0.0 5.499999999999996 0.0
0.0 4.999999999999996 0.0
0.0 4.499999999999997 0.0
0.0 3.999999999999996 0.0
0.0 3.499999999999997 0.0
0.0 2.999999999999998 0.0
0.0 2.499999999999998 0.0
0.0 1.999999999999998 0.0
0.0 1.5 0.0
0.0 0.9999999999999982 0.0
0.0 0.5 0.0
0.4999999999988605 0.4999999999997756 0.0
0.4999999999990288 0.9999999999995937 0.0
0.4999999999991972 1.499999999999142 0.0
0.4999999999993656 1.999999999998411 0.0
0.499999999999534 2.499999999997681 0.0
0.4999999999997023 2.999999999996951 0.0
0.4999999999998707 3.49999999999622 0.0
0.5000000000000391 3.999999999995507 0.0
0.5000000000002074 4.499999999995817 0.0
0.5000000000003758 4.999999999996198 0.0
0.5000000000005441 5.499999999996577 0.0
0.5000000000007125 5.999999999996958 0.0
0.500000000000881 6.499999999997339 0.0
0.5000000000010493 6.999999999997716 0.0
0.5000000000012177 7.499999999998098 0.0
0.500000000001386 7.999999999998479 0.0
0.5000000000015543 8.499999999998856 0.0
0.5000000000017226 8.99999999999924 0.0
0.5000000000018909 9.49999999999962 0.0
CELLS 40 200
4 0 4 44 43
4 43 44 45 42
4 42 45 46 41
4 41 46 47 40
4 40 47 48 39
4 39 48 49 38
4 38 49 50 37
4 37 50 51 36
4 36 51 52 35
4 35 52 53 34
4 34 53 54 33
4 33 54 55 32
4 32 55 56 31
4 31 56 57 30
4 30 57 58 29
4 29 58 59 28
4 28 59 60 27
4 27 60 61 26
4 26 61 62 25
4 25 62 24 3
4 4 1 5 44
4 44 5 6 45
4 45 6 7 46
4 46 7 8 47
4 47 8 9 48
4 48 9 10 49
4 49 10 11 50
4 50 11 12 51
4 51 12 13 52
4 52 13 14 53
4 53 14 15 54
4 54 15 16 55
4 55 16 17 56
4 56 17 18 57
4 57 18 19 58
4 58 19 20 59
4 59 20 21 60
4 60 21 22 61
4 61 22 23 62
4 62 23 2 24
CELL_TYPES 40
9
9
9
9
9
9
9
9
9
9
9
9
9
9
9
9
9
9
9
9
9
9
9
9
9
9
9
9
9
9
9
9
9
9
9
9
9
9
9
9
POINT_DATA 63
VECTORS displacement double
0.0 0.0 0.0
0.0 0.0 0.0
0.0 -0.2766537800805027 0.0
0.0 -0.2766537800800359 0.0
-1.361756475352914e-15 0.0 0.0
0.0 -0.005782295382115805 0.0
0.0 -0.009884821882761347 0.0
0.0 -0.010877961578276894 0.0
0.0 -0.00835987055004363 0.0
0.0 -0.002431779223280727 0.0
0.0 0.005584445851141966 0.0
0.0 0.013820960778507639 0.0
0.0 0.019848533772342115 0.0
0.0 0.021741030113801768 0.0
0.0 0.018513371168035836 0.0
0.0 0.009744076590677199 0.0
0.0 -0.0041746577958359865 0.0
0.0 -0.02260240754738563 0.0
0.0 -0.04509182854697746 0.0
0.0 -0.07161853046997343 0.0
0.0 -0.10203309244288326 0.0
0.0 -0.13618616428920746 0.0
0.0 -0.17395481122130427 0.0
0.0 -0.21578820994369582 0.0
3.881828617068215e-14 -0.24051884746010216 0.0
0.0 -0.21578820994365416 0.0
0.0 -0.17395481122140566 0.0
0.0 -0.13618616428936764 0.0
0.0 -0.10203309244307832 0.0
0.0 -0.07161853047018865 0.0
0.0 -0.04509182854720149 0.0
0.0 -0.0226024075476053 0.0
0.0 -0.004174657796035455 0.0
0.0 0.00974407659051909 0.0
0.0 0.018513371167943875 0.0
0.0 0.02174103011379102 0.0
0.0 0.01984853377241701 0.0
0.0 0.013820960778623286 0.0
0.0 0.005584445851244734 0.0
0.0 -0.0024317792232138014 0.0
0.0 -0.008359870550015115 0.0
0.0 -0.010877961578275218 0.0
0.0 -0.00988482188276598 0.0
0.0 -0.005782295382118809 0.0
6.483086884667277e-17 -0.005733614249432521 0.0
5.903317945460751e-16 -0.009782929037195846 0.0
-2.941553250004912e-16 -0.010913399183333651 0.0
-3.023104082602225e-16 -0.008452444290480081 0.0
1.1938799028394196e-15 -0.00246537414598631 0.0
-4.1384922855390506e-16 0.0056015411184137985 0.0
3.295836440411158e-16 0.013822747642509268 0.0
3.50887125926359e-17 0.019867771470382607 0.0
-3.202493249654954e-16 0.021802746116592272 0.0
-2.644674792808828e-16 0.01854418933895247 0.0
-8.000378466953632e-16 0.00978120187943948 0.0
-8.753257585128213e-17 -0.004173647424189964 0.0
-9.001580785697806e-18 -0.022597400745354733 0.0
1.2181181844636597e-15 -0.04511855118815784 0.0
5.633450402268967e-16 -0.07164033585398617 0.0
-2.083499057271251e-16 -0.10207376778103057 0.0
-1.8269084448614222e-15 -0.13621649248192702 0.0
-7.54398655483547e-15 -0.17390954084345936 0.0
-3.8914402281108076e-14 -0.21401399385729108 0.0
VECTORS velocity double
0.0 0.0 0.0
0.0 0.0 0.0
0.0 10.245335900692428 0.0
0.0 10.245335900692226 0.0
-1.5538777096406874e-12 0.0 0.0
0.0 -0.7849176202174917 0.0
0.0 -1.4712033871630208 0.0
0.0 -1.896441922137177 0.0
0.0 -1.9411970650058636 0.0
0.0 -1.8749898008668007 0.0
0.0 -1.6678116830893561 0.0
0.0 -1.1619598697346305 0.0
0.0 -0.5297669553326175 0.0
0.0 0.22456194321839984 0.0
0.0 1.1782657657539426 0.0
0.0 2.3634283947982935 0.0
0.0 3.650035949579136 0.0
0.0 5.204530100262195 0.0
0.0 6.785883126484595 0.0
0.0 8.290356194531991 0.0
0.0 9.444315305868372 0.0
0.0 10.023857008071207 0.0
0.0 10.252790166753934 0.0
0.0 10.28961720688243 0.0
1.9733735500754981e-13 10.226649697358276 0.0
0.0 10.289617206881374 0.0
0.0 10.25279016675332 0.0
0.0 10.02385700807106 0.0
0.0 9.444315305873237 0.0
0.0 8.290356194542946 0.0
0.0 6.785883126499092 0.0
0.0 5.204530100279179 0.0
0.0 3.6500359495973473 0.0
0.0 2.3634283948140116 0.0
0.0 1.1782657657714477 0.0
0.0 0.22456194323194856 0.0
0.0 -0.5297669553197359 0.0
0.0 -1.1619598697250706 0.0
0.0 -1.6678116830856993 0.0
0.0 -1.874989800865598 0.0
0.0 -1.9411970650057873 0.0
0.0 -1.8964419221395654 0.0
0.0 -1.4712033871655836 0.0
0.0 -0.7849176202172687 0.0
6.896415932747929e-13 -0.8054940423138046 0.0
7.936295862684361e-13 -1.5152501433215932 0.0
-4.872823890616436e-13 -1.8618522574426546 0.0
-2.0303441272189182e-13 -1.9551052252960517 0.0
-6.840682283215742e-14 -1.9133100059874604 0.0
5.4718760483297e-14 -1.608605751749063 0.0
-1.5118358669581772e-13 -1.133377595696135 0.0
3.201429446246613e-13 -0.5109110977906477 0.0
-1.7736676070325077e-13 0.21563021632265222 0.0
-2.498242724442893e-13 1.1730384279419157 0.0
-3.087852429091005e-13 2.339555135721536 0.0
5.208095320466634e-13 3.617961575386074 0.0
8.266631137640669e-13 5.1821208682697115 0.0
-6.407278284076974e-13 6.752307107939886 0.0
1.3105031176835326e-13 8.278139573268126 0.0
-5.449815438143815e-13 9.417036298937521 0.0
-2.442437793577205e-15 10.022069918286993 0.0
-5.863674425816031e-13 10.231744441260041 0.0
-2.069102881882974e-13 10.293499586729332 0.0
VECTORS boundary_conditions double
1.0 1.0 0.0
1.0 1.0 0.0
1.0 0.0 0.0
1.0 0.0 0.0
0.0 1.0 0.0
1.0 0.0 0.0
1.0 0.0 0.0
1.0 0.0 0.0
1.0 0.0 0.0
1.0 0.0 0.0
1.0 0.0 0.0
1.0 0.0 0.0
1.0 0.0 0.0
1.0 0.0 0.0
1.0 0.0 0.0
1.0 0.0 0.0
1.0 0.0 0.0
1.0 0.0 0.0
1.0 0.0 0.0
1.0 0.0 0.0
1.0 0.0 0.0
1.0 0.0 0.0
1.0 0.0 0.0
1.0 0.0 0.0
0.0 0.0 0.0
1.0 0.0 0.0
1.0 0.0 0.0
1.0 0.0 0.0
1.0 0.0 0.0
1.0 0.0 0.0
1.0 0.0 0.0
1.0 0.0 0.0
1.0 0.0 0.0
1.0 0.0 0.0
1.0 0.0 0.0
1.0 0.0 0.0
1.0 0.0 0.0
1.0 0.0 0.0
1.0 0.0 0.0
1.0 0.0 0.0
1.0 0.0 0.0
1.0 0.0 0.0
1.0 0.0 0.0
1.0 0.0 0.0
0.0 0.0 0.0
0.0 0.0 0.0
0.0 0.0 0.0
0.0 0.0 0.0
0.0 0.0 0.0
0.0 0.0 0.0
0.0 0.0 0.0
0.0 0.0 0.0
0.0 0.0 0.0
0.0 0.0 0.0
0.0 0.0 0.0
0.0 0.0 0.0
0.0 0.0 0.0
0.0 0.0 0.0
0.0 0.0 0.0
0.0 0.0 0.0
0.0 0.0 0.0
0.0 0.0 0.0
0.0 0.0 0.0
CELL_DATA 40
SCALARS material_index double
LOOKUP_TABLE default
1.0
1.0
1.0
1.0
1.0
1.0
1.0
1.0
1.0
1.0
1.0
1.0
1.0
1.0
1.0
1.0
1.0
1.0
1.0
1.0
1.0
1.0
1.0
1.0
1.0
1.0
1.0
1.0
1.0
1.0
1.0
1.0
1.0
1.0
1.0
1.0
1.0
1.0
1.0
1.0
SCALARS material_prop_density double
LOOKUP_TABLE default
1500.0
1500.0
1500.0
1500.0
1500.0
1500.0
1500.0
1500.0
1500.0
1500.0
1500.0
1500.0
1500.0
1500.0
1500.0
1500.0
1500.0
1500.0
1500.0
1500.0
1500.0
1500.0
1500.0
1500.0
1500.0
1500.0
1500.0
1500.0
1500.0
1500.0
1500.0
1500.0
1500.0
1500.0
1500.0
1500.0
1500.0
1500.0
1500.0
1500.0
SCALARS material_prop_Young double
LOOKUP_TABLE default
30000000.0
30000000.0
30000000.0
30000000.0
30000000.0
30000000.0
30000000.0
30000000.0
30000000.0
30000000.0
30000000.0
30000000.0
30000000.0
30000000.0
30000000.0
30000000.0
30000000.0
30000000.0
30000000.0
30000000.0
30000000.0
30000000.0
30000000.0
30000000.0
30000000.0
30000000.0
30000000.0
30000000.0
30000000.0
30000000.0
30000000.0
30000000.0
30000000.0
30000000.0
30000000.0
30000000.0
30000000.0
30000000.0
30000000.0
30000000.0
SCALARS material_prop_poisson double
LOOKUP_TABLE default
0.2
0.2
0.2
0.2
0.2
0.2
0.2
0.2
0.2
0.2
0.2
0.2
0.2
0.2
0.2
0.2
0.2
0.2
0.2
0.2
0.2
0.2
0.2
0.2
0.2
0.2
0.2
0.2
0.2
0.2
0.2
0.2
0.2
0.2
0.2
0.2
0.2
0.2
0.2
0.2
