# vtk DataFile Version 2.0
data_14
ASCII
DATASET UNSTRUCTURED_GRID
POINTS 63 float
0.0 0.0 0.0
1.0 0.0 0.0
1.0 10.0 0.0
0.0 10.0 0.0
0.4999999999986921 0.0 0.0
1.0 0.499999999999551 0.0
1.0 0.9999999999991888 0.0
1.0 1.499999999998284 0.0
1.0 1.999999999996824 0.0
1.0 2.499999999995364 0.0
1.0 2.999999999993903 0.0
1.0 3.499999999992442 0.0
1.0 3.999999999991017 0.0
1.0 4.499999999991639 0.0
1.0 4.999999999992399 0.0
1.0 5.499999999993159 0.0
1.0 5.99999999999392 0.0
1.0 6.499999999994679 0.0
1.0 6.999999999995438 0.0
1.0 7.499999999996199 0.0
1.0 7.99999999999696 0.0
1.0 8.49999999999772 0.0
1.0 8.99999999999848 0.0
1.0 9.49999999999924 0.0
0.5000000000020595 10.0 0.0
0.0 9.5 0.0
0.0 8.999999999999998 0.0
0.0 8.499999999999998 0.0
0.0 7.999999999999996 0.0
0.0 7.499999999999995 0.0
0.0 6.999999999999995 0.0
0.0 6.499999999999996 0.0
0.0 5.999999999999996 0.0
0.0 5.499999999999996 0.0
0.0 4.999999999999996 0.0
0.0 4.499999999999997 0.0
0.0 3.999999999999996 0.0
0.0 3.499999999999997 0.0
0.0 2.999999999999998 0.0
0.0 2.499999999999998 0.0
0.0 1.999999999999998 0.0
0.0 1.5 0.0
0.0 0.9999999999999982 0.0
0.0 0.5 0.0
0.4999999999988605 0.4999999999997756 0.0
0.4999999999990288 0.9999999999995937 0.0
0.4999999999991972 1.499999999999142 0.0
0.4999999999993656 1.999999999998411 0.0
0.499999999999534 2.499999999997681 0.0
0.4999999999997023 2.999999999996951 0.0
0.4999999999998707 3.49999999999622 0.0
0.5000000000000391 3.999999999995507 0.0
0.5000000000002074 4.499999999995817 0.0
0.5000000000003758 4.999999999996198 0.0
0.5000000000005441 5.499999999996577 0.0
0.5000000000007125 5.999999999996958 0.0
0.500000000000881 6.499999999997339 0.0
0.5000000000010493 6.999999999997716 0.0
0.5000000000012177 7.499999999998098 0.0
0.500000000001386 7.999999999998479 0.0
0.5000000000015543 8.499999999998856 0.0
0.5000000000017226 8.99999999999924 0.0
0.5000000000018909 9.49999999999962 0.0
CELLS 40 200
4 0 4 44 43
4 43 44 45 42
4 42 45 46 41
4 41 46 47 40
4 40 47 48 39
4 39 48 49 38
4 38 49 50 37
4 37 50 51 36
4 36 51 52 35
4 35 52 53 34
4 34 53 54 33
4 33 54 55 32
4 32 55 56 31
4 31 56 57 30
4 30 57 58 29
4 29 58 59 28
4 28 59 60 27
4 27 60 61 26
4 26 61 62 25
4 25 62 24 3
4 4 1 5 44
4 44 5 6 45
4 45 6 7 46
4 46 7 8 47
4 47 8 9 48
4 48 9 10 49
4 49 10 11 50
4 50 11 12 51
4 51 12 13 52
4 52 13 14 53
4 53 14 15 54
4 54 15 16 55
4 55 16 17 56
4 56 17 18 57
4 57 18 19 58
4 58 19 20 59
4 59 20 21 60
4 60 21 22 61
4 61 22 23 62
4 62 23 2 24
CELL_TYPES 40
9
9
9
9
9
9
9
9
9
9
9
9
9
9
9
9
9
9
9
9
9
9
9
9
9
9
9
9
9
9
9
9
9
9
9
9
9
9
9
9
POINT_DATA 63
VECTORS displacement double
0.0 0.0 0.0
0.0 0.0 0.0
0.0 -0.8219488359824866 0.0
0.0 -0.8219488359820055 0.0
-3.8351011214781804e-17 0.0 0.0
0.0 -0.014054897106208069 0.0
0.0 -0.0312834834955438 0.0
0.0 -0.0544511036131384 0.0
0.0 -0.08533115385560285 0.0
0.0 -0.12402773485080762 0.0
0.0 -0.1686729797183078 0.0
0.0 -0.2161064588572559 0.0
0.0 -0.26351788361062756 0.0
0.0 -0.30978207071915353 0.0
0.0 -0.3550167602586552 0.0
0.0 -0.3993101430859067 0.0
0.0 -0.44326718373865803 0.0
0.0 -0.4884991085559497 0.0
0.0 -0.5343673124736438 0.0
0.0 -0.5787605066330143 0.0
0.0 -0.6235233214428527 0.0
0.0 -0.6686556413720294 0.0
0.0 -0.713667882183557 0.0
0.0 -0.7605116050300142 0.0
4.4050743530772916e-14 -0.7850792994631128 0.0
0.0 -0.7605116050299578 0.0
0.0 -0.7136678821836651 0.0
0.0 -0.6686556413722249 0.0
0.0 -0.6235233214431303 0.0
0.0 -0.5787605066333452 0.0
0.0 -0.5343673124740532 0.0
0.0 -0.48849910855644274 0.0
0.0 -0.44326718373919893 0.0
0.0 -0.3993101430865048 0.0
0.0 -0.35501676025933476 0.0
0.0 -0.3097820707199193 0.0
0.0 -0.26351788361146955 0.0
0.0 -0.21610645885797578 0.0
0.0 -0.1686729797188738 0.0
0.0 -0.12402773485119636 0.0
0.0 -0.08533115385582277 0.0
0.0 -0.054451103613228344 0.0
0.0 -0.03128348349557384 0.0
0.0 -0.014054897106220496 0.0
-8.458247129665149e-17 -0.014054897106214282 0.0
3.337246839663245e-16 -0.03128348349555883 0.0
4.80537585237941e-16 -0.054451103613183366 0.0
-2.656258260471203e-16 -0.08533115385571365 0.0
-7.569837384518459e-16 -0.12402773485097189 0.0
-7.31579073281883e-16 -0.16867297971951362 0.0
3.626240790975291e-16 -0.21610645883512272 0.0
1.3768777482906057e-15 -0.2635178840187722 0.0
-2.381247249319693e-16 -0.30978206572765915 0.0
-1.0999705834231468e-15 -0.35501679442539336 0.0
6.269279610433265e-16 -0.3993101090658383 0.0
1.55602272966519e-15 -0.44326592626558003 0.0
-1.8229868050442818e-15 -0.4885061150488595 0.0
-1.4949184849757052e-15 -0.5343743231133835 0.0
2.9947839621637897e-15 -0.5786316462269125 0.0
-2.8716974244460273e-15 -0.6235955293716736 0.0
-3.2839197118985113e-15 -0.6695035255278567 0.0
-3.866735555898972e-15 -0.7132712875869973 0.0
-4.078371311140838e-14 -0.7574847169808616 0.0
VECTORS velocity double
0.0 0.0 0.0
0.0 0.0 0.0
0.0 -13.499738923906438 0.0
0.0 -13.499738923908588 0.0
6.54180805807432e-15 0.0 0.0
0.0 -2.251940797306105 0.0
0.0 -4.707793159767258 0.0
0.0 -7.416638982546952 0.0
0.0 -10.162019307692256 0.0
0.0 -12.478419475229487 0.0
0.0 -13.879488062606487 0.0
0.0 -14.234538655332205 0.0
0.0 -13.952366850030518 0.0
0.0 -13.605915313943765 0.0
0.0 -13.332023275766637 0.0
0.0 -13.053001852554804 0.0
0.0 -13.20082389559448 0.0
0.0 -13.742750938655965 0.0
0.0 -13.460128151611066 0.0
0.0 -13.074712204167527 0.0
0.0 -13.526899691274942 0.0
0.0 -13.298284056442577 0.0
0.0 -13.970078777017607 0.0
0.0 -13.369190348487987 0.0
1.6768431331681466e-12 -13.10472237288069 0.0
0.0 -13.369190348486374 0.0
0.0 -13.97007877701514 0.0
0.0 -13.298284056437401 0.0
0.0 -13.526899691276682 0.0
0.0 -13.07471220417069 0.0
0.0 -13.460128151601683 0.0
0.0 -13.7427509386579 0.0
0.0 -13.200823895602147 0.0
0.0 -13.053001852552743 0.0
0.0 -13.332023275761347 0.0
0.0 -13.605915313939022 0.0
0.0 -13.9523668500243 0.0
0.0 -14.234538655331614 0.0
0.0 -13.879488062616884 0.0
0.0 -12.478419475247449 0.0
0.0 -10.162019307709228 0.0
0.0 -7.416638982556801 0.0
0.0 -4.707793159771544 0.0
0.0 -2.2519407973081815 0.0
9.511071162146948e-15 -2.2519407973071437 0.0
3.341622368153865e-14 -4.707793159769406 0.0
-3.101440476224831e-14 -7.416638982551866 0.0
-1.2374572117626072e-13 -10.162019307701136 0.0
-9.079005357914805e-14 -12.478419475223731 0.0
1.6920785691465999e-13 -13.879488063085097 0.0
3.508385277273538e-13 -14.23453864298316 0.0
-1.256066408150563e-13 -13.952367098711953 0.0
-4.904207983726093e-13 -13.605911696346606 0.0
1.0365882690176463e-13 -13.332057762928493 0.0
7.655409994661494e-13 -13.052831890118572 0.0
-5.027579963817777e-13 -13.200695183382802 0.0
-1.2971005998594521e-12 -13.748987485270641 0.0
1.63543742147739e-12 -13.437379648614568 0.0
1.274051646519673e-13 -13.036042649142448 0.0
-2.413906248103222e-12 -13.85086918287733 0.0
3.079180187077421e-12 -13.2175208159373 0.0
-1.018291352855419e-12 -12.818494528584099 0.0
-5.584892787878397e-13 -13.553670617489956 0.0
VECTORS boundary_conditions double
1.0 1.0 0.0
1.0 1.0 0.0
1.0 0.0 0.0
1.0 0.0 0.0
0.0 1.0 0.0
1.0 0.0 0.0
1.0 0.0 0.0
1.0 0.0 0.0
1.0 0.0 0.0
1.0 0.0 0.0
1.0 0.0 0.0
1.0 0.0 0.0
1.0 0.0 0.0
1.0 0.0 0.0
1.0 0.0 0.0
1.0 0.0 0.0
1.0 0.0 0.0
1.0 0.0 0.0
1.0 0.0 0.0
1.0 0.0 0.0
1.0 0.0 0.0
1.0 0.0 0.0
1.0 0.0 0.0
1.0 0.0 0.0
0.0 0.0 0.0
1.0 0.0 0.0
1.0 0.0 0.0
1.0 0.0 0.0
1.0 0.0 0.0
1.0 0.0 0.0
1.0 0.0 0.0
1.0 0.0 0.0
1.0 0.0 0.0
1.0 0.0 0.0
1.0 0.0 0.0
1.0 0.0 0.0
1.0 0.0 0.0
1.0 0.0 0.0
1.0 0.0 0.0
1.0 0.0 0.0
1.0 0.0 0.0
1.0 0.0 0.0
1.0 0.0 0.0
1.0 0.0 0.0
0.0 0.0 0.0
0.0 0.0 0.0
0.0 0.0 0.0
0.0 0.0 0.0
0.0 0.0 0.0
0.0 0.0 0.0
0.0 0.0 0.0
0.0 0.0 0.0
0.0 0.0 0.0
0.0 0.0 0.0
0.0 0.0 0.0
0.0 0.0 0.0
0.0 0.0 0.0
0.0 0.0 0.0
0.0 0.0 0.0
0.0 0.0 0.0
0.0 0.0 0.0
0.0 0.0 0.0
0.0 0.0 0.0
CELL_DATA 40
SCALARS material_index double
LOOKUP_TABLE default
1.0
1.0
1.0
1.0
1.0
1.0
1.0
1.0
1.0
1.0
1.0
1.0
1.0
1.0
1.0
1.0
1.0
1.0
1.0
1.0
1.0
1.0
1.0
1.0
1.0
1.0
1.0
1.0
1.0
1.0
1.0
1.0
1.0
1.0
1.0
1.0
1.0
1.0
1.0
1.0
SCALARS material_prop_density double
LOOKUP_TABLE default
1500.0
1500.0
1500.0
1500.0
1500.0
1500.0
1500.0
1500.0
1500.0
1500.0
1500.0
1500.0
1500.0
1500.0
1500.0
1500.0
1500.0
1500.0
1500.0
1500.0
1500.0
1500.0
1500.0
1500.0
1500.0
1500.0
1500.0
1500.0
1500.0
1500.0
1500.0
1500.0
1500.0
1500.0
1500.0
1500.0
1500.0
1500.0
1500.0
1500.0
SCALARS material_prop_Young double
LOOKUP_TABLE default
30000000.0
30000000.0
30000000.0
30000000.0
30000000.0
30000000.0
30000000.0
30000000.0
30000000.0
30000000.0
30000000.0
30000000.0
30000000.0
30000000.0
30000000.0
30000000.0
30000000.0
30000000.0
30000000.0
30000000.0
30000000.0
30000000.0
30000000.0
30000000.0
30000000.0
30000000.0
30000000.0
30000000.0
30000000.0
30000000.0
30000000.0
30000000.0
30000000.0
30000000.0
30000000.0
30000000.0
30000000.0
30000000.0
30000000.0
30000000.0
SCALARS material_prop_poisson double
LOOKUP_TABLE default
0.2
0.2
0.2
0.2
0.2
0.2
0.2
0.2
0.2
0.2
0.2
0.2
0.2
0.2
0.2
0.2
0.2
0.2
0.2
0.2
0.2
0.2
0.2
0.2
0.2
0.2
0.2
0.2
0.2
0.2
0.2
0.2
0.2
0.2
0.2
0.2
0.2
0.2
0.2
0.2
