# vtk DataFile Version 2.0
data_184
ASCII
DATASET UNSTRUCTURED_GRID
POINTS 63 float
0.0 0.0 0.0
1.0 0.0 0.0
1.0 10.0 0.0
0.0 10.0 0.0
0.4999999999986921 0.0 0.0
1.0 0.499999999999551 0.0
1.0 0.9999999999991888 0.0
1.0 1.499999999998284 0.0
1.0 1.999999999996824 0.0
1.0 2.499999999995364 0.0
1.0 2.999999999993903 0.0
1.0 3.499999999992442 0.0
1.0 3.999999999991017 0.0
1.0 4.499999999991639 0.0
1.0 4.999999999992399 0.0
1.0 5.499999999993159 0.0
1.0 5.99999999999392 0.0
1.0 6.499999999994679 0.0
1.0 6.999999999995438 0.0
1.0 7.499999999996199 0.0
1.0 7.99999999999696 0.0
1.0 8.49999999999772 0.0
1.0 8.99999999999848 0.0
1.0 9.49999999999924 0.0
0.5000000000020595 10.0 0.0
0.0 9.5 0.0
0.0 8.999999999999998 0.0
0.0 8.499999999999998 0.0
0.0 7.999999999999996 0.0
0.0 7.499999999999995 0.0
0.0 6.999999999999995 0.0
0.0 6.499999999999996 0.0
0.0 5.999999999999996 0.0
0.0 5.499999999999996 0.0
0.0 4.999999999999996 0.0
0.0 4.499999999999997 0.0
0.0 3.999999999999996 0.0
0.0 3.499999999999997 0.0
0.0 2.999999999999998 0.0
0.0 2.499999999999998 0.0
0.0 1.999999999999998 0.0
0.0 1.5 0.0
0.0 0.9999999999999982 0.0
0.0 0.5 0.0
0.4999999999988605 0.4999999999997756 0.0
0.4999999999990288 0.9999999999995937 0.0
0.4999999999991972 1.499999999999142 0.0
0.4999999999993656 1.999999999998411 0.0
0.499999999999534 2.499999999997681 0.0
0.4999999999997023 2.999999999996951 0.0
0.4999999999998707 3.49999999999622 0.0
0.5000000000000391 3.999999999995507 0.0
0.5000000000002074 4.499999999995817 0.0
0.5000000000003758 4.999999999996198 0.0
0.5000000000005441 5.499999999996577 0.0
0.5000000000007125 5.999999999996958 0.0
0.500000000000881 6.499999999997339 0.0
0.5000000000010493 6.999999999997716 0.0
0.5000000000012177 7.499999999998098 0.0
0.500000000001386 7.999999999998479 0.0
0.5000000000015543 8.499999999998856 0.0
0.5000000000017226 8.99999999999924 0.0
0.5000000000018909 9.49999999999962 0.0
CELLS 40 200
4 0 4 44 43
4 43 44 45 42
4 42 45 46 41
4 41 46 47 40
4 40 47 48 39
4 39 48 49 38
4 38 49 50 37
4 37 50 51 36
4 36 51 52 35
4 35 52 53 34
4 34 53 54 33
4 33 54 55 32
4 32 55 56 31
4 31 56 57 30
4 30 57 58 29
4 29 58 59 28
4 28 59 60 27
4 27 60 61 26
4 26 61 62 25
4 25 62 24 3
4 4 1 5 44
4 44 5 6 45
4 45 6 7 46
4 46 7 8 47
4 47 8 9 48
4 48 9 10 49
4 49 10 11 50
4 50 11 12 51
4 51 12 13 52
4 52 13 14 53
4 53 14 15 54
4 54 15 16 55
4 55 16 17 56
4 56 17 18 57
4 57 18 19 58
4 58 19 20 59
4 59 20 21 60
4 60 21 22 61
4 61 22 23 62
4 62 23 2 24
CELL_TYPES 40
9
9
9
9
9
9
9
9
9
9
9
9
9
9
9
9
9
9
9
9
9
9
9
9
9
9
9
9
9
9
9
9
9
9
9
9
9
9
9
9
POINT_DATA 63
VECTORS displacement double
0.0 0.0 0.0
0.0 0.0 0.0
0.0 -1.4048311663499142 0.0
0.0 -1.4048311663494522 0.0
4.043016238233724e-16 0.0 0.0
0.0 -0.10396259501917954 0.0
0.0 -0.2057888191869511 0.0
0.0 -0.30371621820584155 0.0
0.0 -0.3966158059200357 0.0
0.0 -0.48407471240412764 0.0
0.0 -0.5662662707475529 0.0
0.0 -0.6436068829079504 0.0
0.0 -0.7164305762116217 0.0
0.0 -0.7851088110054765 0.0
0.0 -0.8499943918051318 0.0
0.0 -0.9115234683205391 0.0
0.0 -0.9703300425546281 0.0
0.0 -1.0271568758067398 0.0
0.0 -1.0826095043791852 0.0
0.0 -1.1369946004271314 0.0
0.0 -1.190273475738471 0.0
0.0 -1.2421951162308695 0.0
0.0 -1.2924604291737447 0.0
0.0 -1.3415622775021385 0.0
3.7425761014184304e-14 -1.3686527738547645 0.0
0.0 -1.3415622775021099 0.0
0.0 -1.2924604291738788 0.0
0.0 -1.2421951162311013 0.0
0.0 -1.1902734757387918 0.0
0.0 -1.1369946004275415 0.0
0.0 -1.0826095043796875 0.0
0.0 -1.027156875807337 0.0
0.0 -0.9703300425553288 0.0
0.0 -0.9115234683213613 0.0
0.0 -0.849994391806092 0.0
0.0 -0.785108811006591 0.0
0.0 -0.7164305762128903 0.0
0.0 -0.6436068829090861 0.0
0.0 -0.5662662707485279 0.0
0.0 -0.48407471240491595 0.0
0.0 -0.39661580592060935 0.0
0.0 -0.3037162182061698 0.0
0.0 -0.20578881918711361 0.0
0.0 -0.10396259501927298 0.0
-7.641191964758719e-17 -0.10395967869058327 0.0
-3.920681601842134e-16 -0.20578538450599507 0.0
-2.140398589189507e-16 -0.3037120938086717 0.0
2.5111561758988466e-16 -0.3966144636957163 0.0
3.6025625438682605e-16 -0.4840740684580549 0.0
-3.8544571434977876e-17 -0.5662656226973838 0.0
-7.963454138548856e-16 -0.6436043672620116 0.0
4.534028420521123e-16 -0.7164238217241633 0.0
1.6268476867814776e-16 -0.7851011311817351 0.0
1.722333064871388e-16 -0.8499895859913068 0.0
3.3897686678536717e-16 -0.9115228391714111 0.0
2.1897837680589335e-16 -0.9703373377113589 0.0
8.534832152365327e-17 -1.027164305920609 0.0
-2.7187673985802174e-16 -1.0826206639105804 0.0
-3.636911555290222e-16 -1.13699125171561 0.0
-1.929101713301489e-16 -1.1902699099152412 0.0
-1.2505760420397823e-15 -1.2422027582748822 0.0
-6.75031435204169e-15 -1.2923823070072635 0.0
-3.776585589162997e-14 -1.339751015241111 0.0
VECTORS velocity double
0.0 0.0 0.0
0.0 0.0 0.0
0.0 -11.046761899050011 0.0
0.0 -11.046761899051717 0.0
2.788702607993076e-13 0.0 0.0
0.0 -0.14917006639704766 0.0
0.0 -0.3217349594525105 0.0
0.0 -0.5342733784700311 0.0
0.0 -0.8185159251725418 0.0
0.0 -1.1758251270543232 0.0
0.0 -1.6740614131879994 0.0
0.0 -2.3629819799719467 0.0
0.0 -3.2965301121829906 0.0
0.0 -4.469198444659172 0.0
0.0 -5.836974014254217 0.0
0.0 -7.295275999213903 0.0
0.0 -8.730733283843628 0.0
0.0 -10.015800648034666 0.0
0.0 -11.018724167263429 0.0
0.0 -11.641432058562783 0.0
0.0 -11.860021353137618 0.0
0.0 -11.747750940266373 0.0
0.0 -11.468483215076176 0.0
0.0 -11.181981727469854 0.0
-3.4376924306501643e-13 -11.060626276250684 0.0
0.0 -11.181981727471296 0.0
0.0 -11.468483215076777 0.0
0.0 -11.747750940265966 0.0
0.0 -11.860021353138322 0.0
0.0 -11.641432058565861 0.0
0.0 -11.018724167271191 0.0
0.0 -10.015800648047168 0.0
0.0 -8.730733283860538 0.0
0.0 -7.2952759992342635 0.0
0.0 -5.836974014276292 0.0
0.0 -4.469198444680234 0.0
0.0 -3.296530112201914 0.0
0.0 -2.362981979984607 0.0
0.0 -1.6740614131956768 0.0
0.0 -1.1758251270584559 0.0
0.0 -0.8185159251748058 0.0
0.0 -0.5342733784706759 0.0
0.0 -0.3217349594525958 0.0
0.0 -0.14917006639743047 0.0
2.487476393299779e-15 -0.14616051785630435 0.0
-1.3026540583657457e-13 -0.3135454703935596 0.0
6.123841911464103e-14 -0.5289756368735645 0.0
9.997846838208425e-14 -0.810069392165933 0.0
-1.732037476229766e-13 -1.175969187635375 0.0
-1.489850440349467e-13 -1.6740097847561746 0.0
1.3360095906015438e-13 -2.3701648387606244 0.0
-1.6303529546478917e-13 -3.302672666580726 0.0
1.2193512916938017e-13 -4.474158481470349 0.0
3.05966861492215e-13 -5.840320676442927 0.0
1.0064460259733646e-13 -7.292941008912898 0.0
-1.224635894998402e-13 -8.73281387667954 0.0
-1.8707324384895803e-13 -10.02101907895113 0.0
-9.513000749161955e-14 -11.023672136523569 0.0
-1.6793510602513515e-13 -11.644890945429195 0.0
1.673701747901045e-13 -11.86321449683349 0.0
2.8193198434676835e-13 -11.748616544946806 0.0
2.3065031543395956e-13 -11.462414153347336 0.0
-6.165699629741371e-14 -11.181484134511635 0.0
VECTORS boundary_conditions double
1.0 1.0 0.0
1.0 1.0 0.0
1.0 0.0 0.0
1.0 0.0 0.0
0.0 1.0 0.0
1.0 0.0 0.0
1.0 0.0 0.0
1.0 0.0 0.0
1.0 0.0 0.0
1.0 0.0 0.0
1.0 0.0 0.0
1.0 0.0 0.0
1.0 0.0 0.0
1.0 0.0 0.0
1.0 0.0 0.0
1.0 0.0 0.0
1.0 0.0 0.0
1.0 0.0 0.0
1.0 0.0 0.0
1.0 0.0 0.0
1.0 0.0 0.0
1.0 0.0 0.0
1.0 0.0 0.0
1.0 0.0 0.0
0.0 0.0 0.0
1.0 0.0 0.0
1.0 0.0 0.0
1.0 0.0 0.0
1.0 0.0 0.0
1.0 0.0 0.0
1.0 0.0 0.0
1.0 0.0 0.0
1.0 0.0 0.0
1.0 0.0 0.0
1.0 0.0 0.0
1.0 0.0 0.0
1.0 0.0 0.0
1.0 0.0 0.0
1.0 0.0 0.0
1.0 0.0 0.0
1.0 0.0 0.0
1.0 0.0 0.0
1.0 0.0 0.0
1.0 0.0 0.0
0.0 0.0 0.0
0.0 0.0 0.0
0.0 0.0 0.0
0.0 0.0 0.0
0.0 0.0 0.0
0.0 0.0 0.0
0.0 0.0 0.0
0.0 0.0 0.0
0.0 0.0 0.0
0.0 0.0 0.0
0.0 0.0 0.0
0.0 0.0 0.0
0.0 0.0 0.0
0.0 0.0 0.0
0.0 0.0 0.0
0.0 0.0 0.0
0.0 0.0 0.0
0.0 0.0 0.0
0.0 0.0 0.0
CELL_DATA 40
SCALARS material_index double
LOOKUP_TABLE default
1.0
1.0
1.0
1.0
1.0
1.0
1.0
1.0
1.0
1.0
1.0
1.0
1.0
1.0
1.0
1.0
1.0
1.0
1.0
1.0
1.0
1.0
1.0
1.0
1.0
1.0
1.0
1.0
1.0
1.0
1.0
1.0
1.0
1.0
1.0
1.0
1.0
1.0
1.0
1.0
SCALARS material_prop_density double
LOOKUP_TABLE default
1500.0
1500.0
1500.0
1500.0
1500.0
1500.0
1500.0
1500.0
1500.0
1500.0
1500.0
1500.0
1500.0
1500.0
1500.0
1500.0
1500.0
1500.0
1500.0
1500.0
1500.0
1500.0
1500.0
1500.0
1500.0
1500.0
1500.0
1500.0
1500.0
1500.0
1500.0
1500.0
1500.0
1500.0
1500.0
1500.0
1500.0
1500.0
1500.0
1500.0
SCALARS material_prop_Young double
LOOKUP_TABLE default
30000000.0
30000000.0
30000000.0
30000000.0
30000000.0
30000000.0
30000000.0
30000000.0
30000000.0
30000000.0
30000000.0
30000000.0
30000000.0
30000000.0
30000000.0
30000000.0
30000000.0
30000000.0
30000000.0
30000000.0
30000000.0
30000000.0
30000000.0
30000000.0
30000000.0
30000000.0
30000000.0
30000000.0
30000000.0
30000000.0
30000000.0
30000000.0
30000000.0
30000000.0
30000000.0
30000000.0
30000000.0
30000000.0
30000000.0
30000000.0
SCALARS material_prop_poisson double
LOOKUP_TABLE default
0.2
0.2
0.2
0.2
0.2
0.2
0.2
0.2
0.2
0.2
0.2
0.2
0.2
0.2
0.2
0.2
0.2
0.2
0.2
0.2
0.2
0.2
0.2
0.2
0.2
0.2
0.2
0.2
0.2
0.2
0.2
0.2
0.2
0.2
0.2
0.2
0.2
0.2
0.2
0.2
