# vtk DataFile Version 2.0
data_29
ASCII
DATASET UNSTRUCTURED_GRID
POINTS 63 float
0.0 0.0 0.0
1.0 0.0 0.0
1.0 10.0 0.0
0.0 10.0 0.0
0.4999999999986921 0.0 0.0
1.0 0.499999999999551 0.0
1.0 0.9999999999991888 0.0
1.0 1.499999999998284 0.0
1.0 1.999999999996824 0.0
1.0 2.499999999995364 0.0
1.0 2.999999999993903 0.0
1.0 3.499999999992442 0.0
1.0 3.999999999991017 0.0
1.0 4.499999999991639 0.0
1.0 4.999999999992399 0.0
1.0 5.499999999993159 0.0
1.0 5.99999999999392 0.0
1.0 6.499999999994679 0.0
1.0 6.999999999995438 0.0
1.0 7.499999999996199 0.0
1.0 7.99999999999696 0.0
1.0 8.49999999999772 0.0
1.0 8.99999999999848 0.0
1.0 9.49999999999924 0.0
0.5000000000020595 10.0 0.0
0.0 9.5 0.0
0.0 8.999999999999998 0.0
0.0 8.499999999999998 0.0
0.0 7.999999999999996 0.0
0.0 7.499999999999995 0.0
0.0 6.999999999999995 0.0
0.0 6.499999999999996 0.0
0.0 5.999999999999996 0.0
0.0 5.499999999999996 0.0
0.0 4.999999999999996 0.0
0.0 4.499999999999997 0.0
0.0 3.999999999999996 0.0
0.0 3.499999999999997 0.0
0.0 2.999999999999998 0.0
0.0 2.499999999999998 0.0
0.0 1.999999999999998 0.0
0.0 1.5 0.0
0.0 0.9999999999999982 0.0
0.0 0.5 0.0
0.4999999999988605 0.4999999999997756 0.0
0.4999999999990288 0.9999999999995937 0.0
0.4999999999991972 1.499999999999142 0.0
0.4999999999993656 1.999999999998411 0.0
0.499999999999534 2.499999999997681 0.0
0.4999999999997023 2.999999999996951 0.0
0.4999999999998707 3.49999999999622 0.0
0.5000000000000391 3.999999999995507 0.0
0.5000000000002074 4.499999999995817 0.0
0.5000000000003758 4.999999999996198 0.0
0.5000000000005441 5.499999999996577 0.0
0.5000000000007125 5.999999999996958 0.0
0.500000000000881 6.499999999997339 0.0
0.5000000000010493 6.999999999997716 0.0
0.5000000000012177 7.499999999998098 0.0
0.500000000001386 7.999999999998479 0.0
0.5000000000015543 8.499999999998856 0.0
0.5000000000017226 8.99999999999924 0.0
0.5000000000018909 9.49999999999962 0.0
CELLS 40 200
4 0 4 44 43
4 43 44 45 42
4 42 45 46 41
4 41 46 47 40
4 40 47 48 39
4 39 48 49 38
4 38 49 50 37
4 37 50 51 36
4 36 51 52 35
4 35 52 53 34
4 34 53 54 33
4 33 54 55 32
4 32 55 56 31
4 31 56 57 30
4 30 57 58 29
4 29 58 59 28
4 28 59 60 27
4 27 60 61 26
4 26 61 62 25
4 25 62 24 3
4 4 1 5 44
4 44 5 6 45
4 45 6 7 46
4 46 7 8 47
4 47 8 9 48
4 48 9 10 49
4 49 10 11 50
4 50 11 12 51
4 51 12 13 52
4 52 13 14 53
4 53 14 15 54
4 54 15 16 55
4 55 16 17 56
4 56 17 18 57
4 57 18 19 58
4 58 19 20 59
4 59 20 21 60
4 60 21 22 61
4 61 22 23 62
4 62 23 2 24
CELL_TYPES 40
9
9
9
9
9
9
9
9
9
9
9
9
9
9
9
9
9
9
9
9
9
9
9
9
9
9
9
9
9
9
9
9
9
9
9
9
9
9
9
9
POINT_DATA 63
VECTORS displacement double
0.0 0.0 0.0
0.0 0.0 0.0
0.0 -1.7327448928727356 0.0
0.0 -1.7327448928722582 0.0
2.8944333894277376e-16 0.0 0.0
0.0 -0.09045097201426171 0.0
0.0 -0.17981990442884557 0.0
0.0 -0.26899539429133584 0.0
0.0 -0.35900125459848387 0.0
0.0 -0.4490271595250766 0.0
0.0 -0.5388142527507497 0.0
0.0 -0.6294281418843538 0.0
0.0 -0.7197432699464728 0.0
0.0 -0.8084388453851105 0.0
0.0 -0.8967293610964054 0.0
0.0 -0.9847942326184069 0.0
0.0 -1.0740113036957677 0.0
0.0 -1.1663499785203844 0.0
0.0 -1.2597953271241182 0.0
0.0 -1.3527096791307234 0.0
0.0 -1.4425153049459813 0.0
0.0 -1.5259881619403528 0.0
0.0 -1.6002633918257292 0.0
0.0 -1.6644062437330822 0.0
3.8150011520034967e-14 -1.696613993506313 0.0
0.0 -1.6644062437330585 0.0
0.0 -1.600263391825911 0.0
0.0 -1.5259881619407059 0.0
0.0 -1.4425153049465054 0.0
0.0 -1.3527096791314197 0.0
0.0 -1.259795327124963 0.0
0.0 -1.1663499785213711 0.0
0.0 -1.074011303696868 0.0
0.0 -0.9847942326196119 0.0
0.0 -0.8967293610977536 0.0
0.0 -0.8084388453865847 0.0
0.0 -0.7197432699480777 0.0
0.0 -0.6294281418857355 0.0
0.0 -0.5388142527518476 0.0
0.0 -0.44902715952590155 0.0
0.0 -0.3590012545990595 0.0
0.0 -0.26899539429164593 0.0
0.0 -0.17981990442898724 0.0
0.0 -0.09045097201434128 0.0
-7.659604475517175e-16 -0.09045097197353578 0.0
1.1301964821636764e-16 -0.17981990472353326 0.0
2.107380635298709e-15 -0.2689953936782765 0.0
-1.9910552960382105e-15 -0.35900124917192794 0.0
-1.4119892153459806e-15 -0.4490272026235203 0.0
3.974845838023835e-15 -0.5388141944628486 0.0
-2.059359144586316e-15 -0.6294275327221182 0.0
-1.662921600114659e-15 -0.7197459017673918 0.0
3.176454223292543e-15 -0.8084407309355469 0.0
-6.236889759850379e-16 -0.8966985026930219 0.0
-2.1126350780705835e-15 -0.9848206786495387 0.0
-2.4450346367283796e-16 -1.0741815607093197 0.0
1.6002810285684988e-17 -1.1661120783662977 0.0
3.2610108214749397e-16 -1.2593350055810497 0.0
-2.0761681802077007e-15 -1.3532379277022852 0.0
6.297672251293571e-16 -1.4430083329447008 0.0
-2.4400589195115184e-16 -1.5262139498993526 0.0
-5.545957298416091e-15 -1.6003808921562448 0.0
-3.812898912135718e-14 -1.6624263476429586 0.0
VECTORS velocity double
0.0 0.0 0.0
0.0 0.0 0.0
0.0 -2.090869565996151 0.0
0.0 -2.0908695659976004 0.0
-7.546164354625993e-13 0.0 0.0
0.0 0.03891162861195596 0.0
0.0 0.071227469213198 0.0
0.0 -0.12182068529993462 0.0
0.0 -0.19078166384855422 0.0
0.0 0.17560648391574762 0.0
0.0 0.26452524807854516 0.0
0.0 0.01715760881848105 0.0
0.0 0.06018583382660836 0.0
0.0 -0.30667525090078307 0.0
0.0 -0.7007345668798024 0.0
0.0 -0.10211316148624583 0.0
0.0 0.38090874205597736 0.0
0.0 1.2153009187656263 0.0
0.0 2.2513866142970933 0.0
0.0 2.150702255469456 0.0
0.0 1.3808129768058777 0.0
0.0 0.21409025903684586 0.0
0.0 -0.9134917838565659 0.0
0.0 -1.8539969030433916 0.0
-9.479899678564085e-13 -1.6652217083896161 0.0
0.0 -1.8539969030442087 0.0
0.0 -0.9134917838608523 0.0
0.0 0.21409025903286683 0.0
0.0 1.380812976799973 0.0
0.0 2.1507022554640525 0.0
0.0 2.2513866142983723 0.0
0.0 1.2153009187817343 0.0
0.0 0.3809087420615054 0.0
0.0 -0.10211316147429095 0.0
0.0 -0.7007345668766582 0.0
0.0 -0.30667525091518044 0.0
0.0 0.060185833830471935 0.0
0.0 0.017157608817264247 0.0
0.0 0.26452524807095834 0.0
0.0 0.17560648392136358 0.0
0.0 -0.19078166384478212 0.0
0.0 -0.12182068530322887 0.0
0.0 0.071227469212221 0.0
0.0 0.03891162861367836 0.0
-2.2295212154664998e-14 0.038911640829383476 0.0
1.1402544830467818e-12 0.07122722928728908 0.0
-4.4832072085910545e-13 -0.12181928115029361 0.0
-1.5280139362337492e-12 -0.1907833820364413 0.0
1.9158189698719318e-12 0.17557918092095104 0.0
3.2829751291448767e-13 0.2646900566814363 0.0
-2.4137703255385514e-12 0.01702842389262571 0.0
1.8397360913261903e-12 0.05802689589303078 0.0
4.222418906070704e-15 -0.29930505397578067 0.0
-1.419711807858799e-12 -0.6939487409852312 0.0
1.113936801761148e-12 -0.17429558677040724 0.0
-3.6899089140560973e-13 0.43041109283368684 0.0
4.537524978038532e-13 1.505683072908278 0.0
-7.391516512331184e-13 1.9105546900077943 0.0
-5.2569390886477526e-14 1.7097232382215921 0.0
1.466803391202311e-12 1.7119308892795981 0.0
-7.529085400604304e-14 0.2608487129384809 0.0
4.0786918777133715e-13 -0.43784367766217436 0.0
-1.03379491337966e-12 -1.7020402574803732 0.0
VECTORS boundary_conditions double
1.0 1.0 0.0
1.0 1.0 0.0
1.0 0.0 0.0
1.0 0.0 0.0
0.0 1.0 0.0
1.0 0.0 0.0
1.0 0.0 0.0
1.0 0.0 0.0
1.0 0.0 0.0
1.0 0.0 0.0
1.0 0.0 0.0
1.0 0.0 0.0
1.0 0.0 0.0
1.0 0.0 0.0
1.0 0.0 0.0
1.0 0.0 0.0
1.0 0.0 0.0
1.0 0.0 0.0
1.0 0.0 0.0
1.0 0.0 0.0
1.0 0.0 0.0
1.0 0.0 0.0
1.0 0.0 0.0
1.0 0.0 0.0
0.0 0.0 0.0
1.0 0.0 0.0
1.0 0.0 0.0
1.0 0.0 0.0
1.0 0.0 0.0
1.0 0.0 0.0
1.0 0.0 0.0
1.0 0.0 0.0
1.0 0.0 0.0
1.0 0.0 0.0
1.0 0.0 0.0
1.0 0.0 0.0
1.0 0.0 0.0
1.0 0.0 0.0
1.0 0.0 0.0
1.0 0.0 0.0
1.0 0.0 0.0
1.0 0.0 0.0
1.0 0.0 0.0
1.0 0.0 0.0
0.0 0.0 0.0
0.0 0.0 0.0
0.0 0.0 0.0
0.0 0.0 0.0
0.0 0.0 0.0
0.0 0.0 0.0
0.0 0.0 0.0
0.0 0.0 0.0
0.0 0.0 0.0
0.0 0.0 0.0
0.0 0.0 0.0
0.0 0.0 0.0
0.0 0.0 0.0
0.0 0.0 0.0
0.0 0.0 0.0
0.0 0.0 0.0
0.0 0.0 0.0
0.0 0.0 0.0
0.0 0.0 0.0
CELL_DATA 40
SCALARS material_index double
LOOKUP_TABLE default
1.0
1.0
1.0
1.0
1.0
1.0
1.0
1.0
1.0
1.0
1.0
1.0
1.0
1.0
1.0
1.0
1.0
1.0
1.0
1.0
1.0
1.0
1.0
1.0
1.0
1.0
1.0
1.0
1.0
1.0
1.0
1.0
1.0
1.0
1.0
1.0
1.0
1.0
1.0
1.0
SCALARS material_prop_density double
LOOKUP_TABLE default
1500.0
1500.0
1500.0
1500.0
1500.0
1500.0
1500.0
1500.0
1500.0
1500.0
1500.0
1500.0
1500.0
1500.0
1500.0
1500.0
1500.0
1500.0
1500.0
1500.0
1500.0
1500.0
1500.0
1500.0
1500.0
1500.0
1500.0
1500.0
1500.0
1500.0
1500.0
1500.0
1500.0
1500.0
1500.0
1500.0
1500.0
1500.0
1500.0
1500.0
SCALARS material_prop_Young double
LOOKUP_TABLE default
30000000.0
30000000.0
30000000.0
30000000.0
30000000.0
30000000.0
30000000.0
30000000.0
30000000.0
30000000.0
30000000.0
30000000.0
30000000.0
30000000.0
30000000.0
30000000.0
30000000.0
30000000.0
30000000.0
30000000.0
30000000.0
30000000.0
30000000.0
30000000.0
30000000.0
30000000.0
30000000.0
30000000.0
30000000.0
30000000.0
30000000.0
30000000.0
30000000.0
30000000.0
30000000.0
30000000.0
30000000.0
30000000.0
30000000.0
30000000.0
SCALARS material_prop_poisson double
LOOKUP_TABLE default
0.2
0.2
0.2
0.2
0.2
0.2
0.2
0.2
0.2
0.2
0.2
0.2
0.2
0.2
0.2
0.2
0.2
0.2
0.2
0.2
0.2
0.2
0.2
0.2
0.2
0.2
0.2
0.2
0.2
0.2
0.2
0.2
0.2
0.2
0.2
0.2
0.2
0.2
0.2
0.2
