# vtk DataFile Version 2.0
data_89
ASCII
DATASET UNSTRUCTURED_GRID
POINTS 63 float
0.0 0.0 0.0
1.0 0.0 0.0
1.0 10.0 0.0
0.0 10.0 0.0
0.4999999999986921 0.0 0.0
1.0 0.499999999999551 0.0
1.0 0.9999999999991888 0.0
1.0 1.499999999998284 0.0
1.0 1.999999999996824 0.0
1.0 2.499999999995364 0.0
1.0 2.999999999993903 0.0
1.0 3.499999999992442 0.0
1.0 3.999999999991017 0.0
1.0 4.499999999991639 0.0
1.0 4.999999999992399 0.0
1.0 5.499999999993159 0.0
1.0 5.99999999999392 0.0
1.0 6.499999999994679 0.0
1.0 6.999999999995438 0.0
1.0 7.499999999996199 0.0
1.0 7.99999999999696 0.0
1.0 8.49999999999772 0.0
1.0 8.99999999999848 0.0
1.0 9.49999999999924 0.0
0.5000000000020595 10.0 0.0
0.0 9.5 0.0
0.0 8.999999999999998 0.0
0.0 8.499999999999998 0.0
0.0 7.999999999999996 0.0
0.0 7.499999999999995 0.0
0.0 6.999999999999995 0.0
0.0 6.499999999999996 0.0
0.0 5.999999999999996 0.0
0.0 5.499999999999996 0.0
0.0 4.999999999999996 0.0
0.0 4.499999999999997 0.0
0.0 3.999999999999996 0.0
0.0 3.499999999999997 0.0
0.0 2.999999999999998 0.0
0.0 2.499999999999998 0.0
0.0 1.999999999999998 0.0
0.0 1.5 0.0
0.0 0.9999999999999982 0.0
0.0 0.5 0.0
0.4999999999988605 0.4999999999997756 0.0
0.4999999999990288 0.9999999999995937 0.0
0.4999999999991972 1.499999999999142 0.0
0.4999999999993656 1.999999999998411 0.0
0.499999999999534 2.499999999997681 0.0
0.4999999999997023 2.999999999996951 0.0
0.4999999999998707 3.49999999999622 0.0
0.5000000000000391 3.999999999995507 0.0
0.5000000000002074 4.499999999995817 0.0
0.5000000000003758 4.999999999996198 0.0
0.5000000000005441 5.499999999996577 0.0
0.5000000000007125 5.999999999996958 0.0
0.500000000000881 6.499999999997339 0.0
0.5000000000010493 6.999999999997716 0.0
0.5000000000012177 7.499999999998098 0.0
0.500000000001386 7.999999999998479 0.0
0.5000000000015543 8.499999999998856 0.0
0.5000000000017226 8.99999999999924 0.0
0.5000000000018909 9.49999999999962 0.0
CELLS 40 200
4 0 4 44 43
4 43 44 45 42
4 42 45 46 41
4 41 46 47 40
4 40 47 48 39
4 39 48 49 38
4 38 49 50 37
4 37 50 51 36
4 36 51 52 35
4 35 52 53 34
4 34 53 54 33
4 33 54 55 32
4 32 55 56 31
4 31 56 57 30
4 30 57 58 29
4 29 58 59 28
4 28 59 60 27
4 27 60 61 26
4 26 61 62 25
4 25 62 24 3
4 4 1 5 44
4 44 5 6 45
4 45 6 7 46
4 46 7 8 47
4 47 8 9 48
4 48 9 10 49
4 49 10 11 50
4 50 11 12 51
4 51 12 13 52
4 52 13 14 53
4 53 14 15 54
4 54 15 16 55
4 55 16 17 56
4 56 17 18 57
4 57 18 19 58
4 58 19 20 59
4 59 20 21 60
4 60 21 22 61
4 61 22 23 62
4 62 23 2 24
CELL_TYPES 40
9
9
9
9
9
9
9
9
9
9
9
9
9
9
9
9
9
9
9
9
9
9
9
9
9
9
9
9
9
9
9
9
9
9
9
9
9
9
9
9
POINT_DATA 63
VECTORS displacement double
0.0 0.0 0.0
0.0 0.0 0.0
0.0 -1.3843977742068077 0.0
0.0 -1.3843977742063496 0.0
5.541588446746421e-16 0.0 0.0
0.0 -0.08996297839548707 0.0
0.0 -0.17861584576905426 0.0
0.0 -0.2659201582351588 0.0
0.0 -0.35192427506025376 0.0
0.0 -0.43701520014877293 0.0
0.0 -0.5213322392412277 0.0
0.0 -0.6051566853219413 0.0
0.0 -0.6881561530319428 0.0
0.0 -0.7689588386549272 0.0
0.0 -0.846381015370213 0.0
0.0 -0.9193954853035975 0.0
0.0 -0.986717171514381 0.0
0.0 -1.0476507357165767 0.0
0.0 -1.1021219557337272 0.0
0.0 -1.1509060503681707 0.0
0.0 -1.1955156317400155 0.0
0.0 -1.237837868920876 0.0
0.0 -1.279723819360188 0.0
0.0 -1.3231528237261765 0.0
3.429617255331021e-14 -1.3481632581613225 0.0
0.0 -1.3231528237261458 0.0
0.0 -1.2797238193603024 0.0
0.0 -1.237837868921066 0.0
0.0 -1.1955156317402782 0.0
0.0 -1.1509060503685238 0.0
0.0 -1.1021219557341941 0.0
0.0 -1.0476507357171878 0.0
0.0 -0.9867171715151561 0.0
0.0 -0.9193954853045571 0.0
0.0 -0.8463810153713588 0.0
0.0 -0.7689588386562477 0.0
0.0 -0.6881561530334168 0.0
0.0 -0.6051566853232067 0.0
0.0 -0.5213322392422535 0.0
0.0 -0.43701520014955897 0.0
0.0 -0.35192427506079954 0.0
0.0 -0.2659201582354584 0.0
0.0 -0.1786158457691985 0.0
0.0 -0.0899629783955686 0.0
3.206287668892733e-16 -0.08988648732199825 0.0
-1.8903286294596002e-16 -0.17867701361045982 0.0
6.926997120637868e-16 -0.26597870408489976 0.0
-1.1428138039752121e-15 -0.3519289642937 0.0
-8.597634993842551e-17 -0.43694693369709625 0.0
7.729595153823688e-16 -0.5212479720313067 0.0
-9.5311563737062e-16 -0.6051649382057921 0.0
-6.147609123118347e-16 -0.6881697419005045 0.0
2.3874182647973108e-18 -0.7690413066502284 0.0
9.434604714009174e-16 -0.8464422998948881 0.0
-1.1575369865275945e-15 -0.9194449287285844 0.0
8.880043378447578e-16 -0.9867394871157265 0.0
1.440252925711649e-16 -1.047626939128934 0.0
-1.4423081454286322e-16 -1.102096423729258 0.0
7.167719463431862e-16 -1.1508351918748374 0.0
9.145062019574777e-16 -1.195467025334055 0.0
1.5875366128362278e-16 -1.2377465757521309 0.0
-7.217139222455221e-15 -1.2795796949975757 0.0
-3.9994173437683306e-14 -1.321250468552585 0.0
VECTORS velocity double
0.0 0.0 0.0
0.0 0.0 0.0
0.0 17.304600678173458 0.0
0.0 17.304600678171372 0.0
-5.000085618313919e-13 0.0 0.0
0.0 0.3839272022602225 0.0
0.0 0.4840452587641817 0.0
0.0 0.5234544304424853 0.0
0.0 0.4323734705377973 0.0
0.0 0.5892774878718292 0.0
0.0 1.1208130263110085 0.0
0.0 2.0158948239609664 0.0
0.0 3.1723664634244706 0.0
0.0 4.2785670784301075 0.0
0.0 5.245653478574617 0.0
0.0 6.0108003842678315 0.0
0.0 6.891216023416668 0.0
0.0 7.935360278280749 0.0
0.0 9.187959097193254 0.0
0.0 10.853512400463298 0.0
0.0 12.68690569161119 0.0
0.0 14.372914167202552 0.0
0.0 15.959858667986856 0.0
0.0 16.98333973845248 0.0
7.6387146544826e-13 17.305991211187557 0.0
0.0 16.983339738454788 0.0
0.0 15.959858667991556 0.0
0.0 14.372914167209947 0.0
0.0 12.686905691621975 0.0
0.0 10.853512400478737 0.0
0.0 9.187959097205534 0.0
0.0 7.935360278292844 0.0
0.0 6.891216023429109 0.0
0.0 6.010800384278907 0.0
0.0 5.245653478586263 0.0
0.0 4.278567078448425 0.0
0.0 3.1723664634457744 0.0
0.0 2.0158948239785737 0.0
0.0 1.1208130263182419 0.0
0.0 0.5892774878758678 0.0
0.0 0.4323734705374811 0.0
0.0 0.5234544304403448 0.0
0.0 0.4840452587634769 0.0
0.0 0.3839272022618263 0.0
7.291231769400593e-13 0.23435306670197864 0.0
-3.218424076036199e-13 0.5026515096051525 0.0
-3.586416562500363e-14 0.590708199913327 0.0
-5.766107682390669e-13 0.43804728193198805 0.0
4.609665268605776e-13 0.6362535566416536 0.0
7.708278294415854e-13 1.0813761037448852 0.0
-1.5764654711373176e-12 1.9722338654588167 0.0
8.519700789685865e-13 3.1377036323713963 0.0
-2.769056721187177e-14 4.246767584780249 0.0
4.655217749548149e-13 5.281544807619424 0.0
-1.0749936005741503e-12 6.022289135775413 0.0
3.6934428679741616e-13 6.959494329439675 0.0
2.816648552719991e-13 7.9596755707925375 0.0
-1.0533696785079841e-13 9.242678978930575 0.0
8.36156265985271e-13 10.867104332041029 0.0
-2.5819858489762476e-13 12.71460031380154 0.0
-1.083047143958267e-12 14.373108725683904 0.0
-9.976685178732343e-13 15.967920354580855 0.0
2.369306773502821e-14 16.976246896415713 0.0
VECTORS boundary_conditions double
1.0 1.0 0.0
1.0 1.0 0.0
1.0 0.0 0.0
1.0 0.0 0.0
0.0 1.0 0.0
1.0 0.0 0.0
1.0 0.0 0.0
1.0 0.0 0.0
1.0 0.0 0.0
1.0 0.0 0.0
1.0 0.0 0.0
1.0 0.0 0.0
1.0 0.0 0.0
1.0 0.0 0.0
1.0 0.0 0.0
1.0 0.0 0.0
1.0 0.0 0.0
1.0 0.0 0.0
1.0 0.0 0.0
1.0 0.0 0.0
1.0 0.0 0.0
1.0 0.0 0.0
1.0 0.0 0.0
1.0 0.0 0.0
0.0 0.0 0.0
1.0 0.0 0.0
1.0 0.0 0.0
1.0 0.0 0.0
1.0 0.0 0.0
1.0 0.0 0.0
1.0 0.0 0.0
1.0 0.0 0.0
1.0 0.0 0.0
1.0 0.0 0.0
1.0 0.0 0.0
1.0 0.0 0.0
1.0 0.0 0.0
1.0 0.0 0.0
1.0 0.0 0.0
1.0 0.0 0.0
1.0 0.0 0.0
1.0 0.0 0.0
1.0 0.0 0.0
1.0 0.0 0.0
0.0 0.0 0.0
0.0 0.0 0.0
0.0 0.0 0.0
0.0 0.0 0.0
0.0 0.0 0.0
0.0 0.0 0.0
0.0 0.0 0.0
0.0 0.0 0.0
0.0 0.0 0.0
0.0 0.0 0.0
0.0 0.0 0.0
0.0 0.0 0.0
0.0 0.0 0.0
0.0 0.0 0.0
0.0 0.0 0.0
0.0 0.0 0.0
0.0 0.0 0.0
0.0 0.0 0.0
0.0 0.0 0.0
CELL_DATA 40
SCALARS material_index double
LOOKUP_TABLE default
1.0
1.0
1.0
1.0
1.0
1.0
1.0
1.0
1.0
1.0
1.0
1.0
1.0
1.0
1.0
1.0
1.0
1.0
1.0
1.0
1.0
1.0
1.0
1.0
1.0
1.0
1.0
1.0
1.0
1.0
1.0
1.0
1.0
1.0
1.0
1.0
1.0
1.0
1.0
1.0
SCALARS material_prop_density double
LOOKUP_TABLE default
1500.0
1500.0
1500.0
1500.0
1500.0
1500.0
1500.0
1500.0
1500.0
1500.0
1500.0
1500.0
1500.0
1500.0
1500.0
1500.0
1500.0
1500.0
1500.0
1500.0
1500.0
1500.0
1500.0
1500.0
1500.0
1500.0
1500.0
1500.0
1500.0
1500.0
1500.0
1500.0
1500.0
1500.0
1500.0
1500.0
1500.0
1500.0
1500.0
1500.0
SCALARS material_prop_Young double
LOOKUP_TABLE default
30000000.0
30000000.0
30000000.0
30000000.0
30000000.0
30000000.0
30000000.0
30000000.0
30000000.0
30000000.0
30000000.0
30000000.0
30000000.0
30000000.0
30000000.0
30000000.0
30000000.0
30000000.0
30000000.0
30000000.0
30000000.0
30000000.0
30000000.0
30000000.0
30000000.0
30000000.0
30000000.0
30000000.0
30000000.0
30000000.0
30000000.0
30000000.0
30000000.0
30000000.0
30000000.0
30000000.0
30000000.0
30000000.0
30000000.0
30000000.0
SCALARS material_prop_poisson double
LOOKUP_TABLE default
0.2
0.2
0.2
0.2
0.2
0.2
0.2
0.2
0.2
0.2
0.2
0.2
0.2
0.2
0.2
0.2
0.2
0.2
0.2
0.2
0.2
0.2
0.2
0.2
0.2
0.2
0.2
0.2
0.2
0.2
0.2
0.2
0.2
0.2
0.2
0.2
0.2
0.2
0.2
0.2
