# vtk DataFile Version 2.0
data_20
ASCII
DATASET UNSTRUCTURED_GRID
POINTS 63 float
0.0 0.0 0.0
1.0 0.0 0.0
1.0 10.0 0.0
0.0 10.0 0.0
0.4999999999986921 0.0 0.0
1.0 0.499999999999551 0.0
1.0 0.9999999999991888 0.0
1.0 1.499999999998284 0.0
1.0 1.999999999996824 0.0
1.0 2.499999999995364 0.0
1.0 2.999999999993903 0.0
1.0 3.499999999992442 0.0
1.0 3.999999999991017 0.0
1.0 4.499999999991639 0.0
1.0 4.999999999992399 0.0
1.0 5.499999999993159 0.0
1.0 5.99999999999392 0.0
1.0 6.499999999994679 0.0
1.0 6.999999999995438 0.0
1.0 7.499999999996199 0.0
1.0 7.99999999999696 0.0
1.0 8.49999999999772 0.0
1.0 8.99999999999848 0.0
1.0 9.49999999999924 0.0
0.5000000000020595 10.0 0.0
0.0 9.5 0.0
0.0 8.999999999999998 0.0
0.0 8.499999999999998 0.0
0.0 7.999999999999996 0.0
0.0 7.499999999999995 0.0
0.0 6.999999999999995 0.0
0.0 6.499999999999996 0.0
0.0 5.999999999999996 0.0
0.0 5.499999999999996 0.0
0.0 4.999999999999996 0.0
0.0 4.499999999999997 0.0
0.0 3.999999999999996 0.0
0.0 3.499999999999997 0.0
0.0 2.999999999999998 0.0
0.0 2.499999999999998 0.0
0.0 1.999999999999998 0.0
0.0 1.5 0.0
0.0 0.9999999999999982 0.0
0.0 0.5 0.0
0.4999999999988605 0.4999999999997756 0.0
0.4999999999990288 0.9999999999995937 0.0
0.4999999999991972 1.499999999999142 0.0
0.4999999999993656 1.999999999998411 0.0
0.499999999999534 2.499999999997681 0.0
0.4999999999997023 2.999999999996951 0.0
0.4999999999998707 3.49999999999622 0.0
0.5000000000000391 3.999999999995507 0.0
0.5000000000002074 4.499999999995817 0.0
0.5000000000003758 4.999999999996198 0.0
0.5000000000005441 5.499999999996577 0.0
0.5000000000007125 5.999999999996958 0.0
0.500000000000881 6.499999999997339 0.0
0.5000000000010493 6.999999999997716 0.0
0.5000000000012177 7.499999999998098 0.0
0.500000000001386 7.999999999998479 0.0
0.5000000000015543 8.499999999998856 0.0
0.5000000000017226 8.99999999999924 0.0
0.5000000000018909 9.49999999999962 0.0
CELLS 40 200
4 0 4 44 43
4 43 44 45 42
4 42 45 46 41
4 41 46 47 40
4 40 47 48 39
4 39 48 49 38
4 38 49 50 37
4 37 50 51 36
4 36 51 52 35
4 35 52 53 34
4 34 53 54 33
4 33 54 55 32
4 32 55 56 31
4 31 56 57 30
4 30 57 58 29
4 29 58 59 28
4 28 59 60 27
4 27 60 61 26
4 26 61 62 25
4 25 62 24 3
4 4 1 5 44
4 44 5 6 45
4 45 6 7 46
4 46 7 8 47
4 47 8 9 48
4 48 9 10 49
4 49 10 11 50
4 50 11 12 51
4 51 12 13 52
4 52 13 14 53
4 53 14 15 54
4 54 15 16 55
4 55 16 17 56
4 56 17 18 57
4 57 18 19 58
4 58 19 20 59
4 59 20 21 60
4 60 21 22 61
4 61 22 23 62
4 62 23 2 24
CELL_TYPES 40
9
9
9
9
9
9
9
9
9
9
9
9
9
9
9
9
9
9
9
9
9
9
9
9
9
9
9
9
9
9
9
9
9
9
9
9
9
9
9
9
POINT_DATA 63
VECTORS displacement double
0.0 0.0 0.0
0.0 0.0 0.0
0.0 -1.2238062261770506 0.0
0.0 -1.2238062261765836 0.0
7.359167048500196e-17 0.0 0.0
0.0 -0.0938523579122261 0.0
0.0 -0.18719626076209867 0.0
0.0 -0.2786027147697304 0.0
0.0 -0.36569694751054066 0.0
0.0 -0.44631472588077403 0.0
0.0 -0.5196018986396378 0.0
0.0 -0.5855456592894848 0.0
0.0 -0.6443230612227778 0.0
0.0 -0.6975963754027595 0.0
0.0 -0.7483205684534948 0.0
0.0 -0.7970669062554899 0.0
0.0 -0.8433033198952784 0.0
0.0 -0.8892832271394533 0.0
0.0 -0.9352418593908486 0.0
0.0 -0.9800483553042451 0.0
0.0 -1.0250369701067925 0.0
0.0 -1.069957597307818 0.0
0.0 -1.1156435317948048 0.0
0.0 -1.1613600066718004 0.0
3.758227376029198e-14 -1.1868105904497044 0.0
0.0 -1.1613600066717629 0.0
0.0 -1.1156435317949205 0.0
0.0 -1.0699575973080167 0.0
0.0 -1.025036970107068 0.0
0.0 -0.9800483553045782 0.0
0.0 -0.9352418593912538 0.0
0.0 -0.8892832271399487 0.0
0.0 -0.8433033198958285 0.0
0.0 -0.7970669062561322 0.0
0.0 -0.7483205684542573 0.0
0.0 -0.6975963754036251 0.0
0.0 -0.6443230612237745 0.0
0.0 -0.5855456592904283 0.0
0.0 -0.5196018986404913 0.0
0.0 -0.4463147258814899 0.0
0.0 -0.36569694751107573 0.0
0.0 -0.27860271477004045 0.0
0.0 -0.18719626076225082 0.0
0.0 -0.09385235791231102 0.0
1.7056680420786713e-16 -0.09385235791226289 0.0
-2.067026014576635e-17 -0.18719626076228776 0.0
-7.953089587359741e-16 -0.27860271476810394 0.0
-3.4664728273235313e-16 -0.3656969475320133 0.0
9.018933547562098e-16 -0.4463147257086605 0.0
2.106606036575268e-16 -0.5196018993379364 0.0
-1.232216081000087e-15 -0.5855456616140973 0.0
2.154997037518275e-15 -0.6443230140927669 0.0
1.3179907170567931e-15 -0.6975965765242652 0.0
-2.7179191745604218e-15 -0.7483209311701143 0.0
-1.5200088847417469e-15 -0.7970612549622328 0.0
3.071070977780811e-15 -0.8433120908005687 0.0
-1.6936307552349945e-15 -0.8893391616840501 0.0
-2.0421026814342123e-15 -0.9350871926788558 0.0
1.9235906696406072e-15 -0.9797998775721024 0.0
-2.3128031025359688e-15 -1.0257906417305007 0.0
8.791615671339365e-16 -1.0705070377116774 0.0
-4.909022784057199e-15 -1.1150423854737443 0.0
-3.991164315819985e-14 -1.1593207806095553 0.0
VECTORS velocity double
0.0 0.0 0.0
0.0 0.0 0.0
0.0 -13.665572623721417 0.0
0.0 -13.665572623722188 0.0
1.222882395771917e-13 0.0 0.0
0.0 1.2048519133676308 0.0
0.0 1.4787447967380514 0.0
0.0 0.5188435602064398 0.0
0.0 -1.3902069050947103 0.0
0.0 -3.8439514596119615 0.0
0.0 -6.4077761584121316 0.0
0.0 -8.466186899908852 0.0
0.0 -9.827835322908363 0.0
0.0 -11.144310946701957 0.0
0.0 -12.38464565114279 0.0
0.0 -12.639338045879068 0.0
0.0 -12.767236064691067 0.0
0.0 -13.413375506010341 0.0
0.0 -13.238328651645386 0.0
0.0 -13.143400662927393 0.0
0.0 -13.291086050497846 0.0
0.0 -13.601189392378641 0.0
0.0 -13.700164685064822 0.0
0.0 -13.38345564162416 0.0
-2.986167437082803e-13 -13.46271513094123 0.0
0.0 -13.383455641629382 0.0
0.0 -13.700164685064799 0.0
0.0 -13.601189392379014 0.0
0.0 -13.291086050499668 0.0
0.0 -13.143400662935443 0.0
0.0 -13.238328651638227 0.0
0.0 -13.413375506013741 0.0
0.0 -12.767236064700553 0.0
0.0 -12.63933804587397 0.0
0.0 -12.384645651153349 0.0
0.0 -11.144310946728016 0.0
0.0 -9.827835322930566 0.0
0.0 -8.466186899932682 0.0
0.0 -6.40777615844207 0.0
0.0 -3.843951459636962 0.0
0.0 -1.3902069051084522 0.0
0.0 0.5188435602017627 0.0
0.0 1.4787447967373852 0.0
0.0 1.2048519133682454 0.0
4.6264953432944215e-14 1.2048519133710665 0.0
-5.3798938481888436e-14 1.4787447966710903 0.0
-1.7507395078362778e-13 0.5188435613554097 0.0
1.478369152500096e-13 -1.3902069207350154 0.0
1.307796689727175e-13 -3.84395130201807 0.0
-5.623768963996882e-13 -6.407777207896402 0.0
1.9622749414579868e-13 -8.466184014074404 0.0
1.123384835261439e-12 -9.827815576660797 0.0
-9.298948405241458e-13 -11.144543549316257 0.0
-1.3046087109013722e-12 -12.383935625772157 0.0
1.912952368740205e-12 -12.637274646972884 0.0
1.0514209873887702e-13 -12.785902396097516 0.0
-2.0444318402009413e-12 -13.394690237489554 0.0
2.13529009344643e-12 -13.094835726123057 0.0
-5.690707219763363e-13 -13.437449231377094 0.0
-1.2181616452492318e-13 -13.683483678035833 0.0
2.194540124088406e-12 -12.783031521315595 0.0
-1.6806836211926314e-12 -13.425037346366087 0.0
2.0629131109219825e-13 -12.996721895814957 0.0
VECTORS boundary_conditions double
1.0 1.0 0.0
1.0 1.0 0.0
1.0 0.0 0.0
1.0 0.0 0.0
0.0 1.0 0.0
1.0 0.0 0.0
1.0 0.0 0.0
1.0 0.0 0.0
1.0 0.0 0.0
1.0 0.0 0.0
1.0 0.0 0.0
1.0 0.0 0.0
1.0 0.0 0.0
1.0 0.0 0.0
1.0 0.0 0.0
1.0 0.0 0.0
1.0 0.0 0.0
1.0 0.0 0.0
1.0 0.0 0.0
1.0 0.0 0.0
1.0 0.0 0.0
1.0 0.0 0.0
1.0 0.0 0.0
1.0 0.0 0.0
0.0 0.0 0.0
1.0 0.0 0.0
1.0 0.0 0.0
1.0 0.0 0.0
1.0 0.0 0.0
1.0 0.0 0.0
1.0 0.0 0.0
1.0 0.0 0.0
1.0 0.0 0.0
1.0 0.0 0.0
1.0 0.0 0.0
1.0 0.0 0.0
1.0 0.0 0.0
1.0 0.0 0.0
1.0 0.0 0.0
1.0 0.0 0.0
1.0 0.0 0.0
1.0 0.0 0.0
1.0 0.0 0.0
1.0 0.0 0.0
0.0 0.0 0.0
0.0 0.0 0.0
0.0 0.0 0.0
0.0 0.0 0.0
0.0 0.0 0.0
0.0 0.0 0.0
0.0 0.0 0.0
0.0 0.0 0.0
0.0 0.0 0.0
0.0 0.0 0.0
0.0 0.0 0.0
0.0 0.0 0.0
0.0 0.0 0.0
0.0 0.0 0.0
0.0 0.0 0.0
0.0 0.0 0.0
0.0 0.0 0.0
0.0 0.0 0.0
0.0 0.0 0.0
CELL_DATA 40
SCALARS material_index double
LOOKUP_TABLE default
1.0
1.0
1.0
1.0
1.0
1.0
1.0
1.0
1.0
1.0
1.0
1.0
1.0
1.0
1.0
1.0
1.0
1.0
1.0
1.0
1.0
1.0
1.0
1.0
1.0
1.0
1.0
1.0
1.0
1.0
1.0
1.0
1.0
1.0
1.0
1.0
1.0
1.0
1.0
1.0
SCALARS material_prop_density double
LOOKUP_TABLE default
1500.0
1500.0
1500.0
1500.0
1500.0
1500.0
1500.0
1500.0
1500.0
1500.0
1500.0
1500.0
1500.0
1500.0
1500.0
1500.0
1500.0
1500.0
1500.0
1500.0
1500.0
1500.0
1500.0
1500.0
1500.0
1500.0
1500.0
1500.0
1500.0
1500.0
1500.0
1500.0
1500.0
1500.0
1500.0
1500.0
1500.0
1500.0
1500.0
1500.0
SCALARS material_prop_Young double
LOOKUP_TABLE default
30000000.0
30000000.0
30000000.0
30000000.0
30000000.0
30000000.0
30000000.0
30000000.0
30000000.0
30000000.0
30000000.0
30000000.0
30000000.0
30000000.0
30000000.0
30000000.0
30000000.0
30000000.0
30000000.0
30000000.0
30000000.0
30000000.0
30000000.0
30000000.0
30000000.0
30000000.0
30000000.0
30000000.0
30000000.0
30000000.0
30000000.0
30000000.0
30000000.0
30000000.0
30000000.0
30000000.0
30000000.0
30000000.0
30000000.0
30000000.0
SCALARS material_prop_poisson double
LOOKUP_TABLE default
0.2
0.2
0.2
0.2
0.2
0.2
0.2
0.2
0.2
0.2
0.2
0.2
0.2
0.2
0.2
0.2
0.2
0.2
0.2
0.2
0.2
0.2
0.2
0.2
0.2
0.2
0.2
0.2
0.2
0.2
0.2
0.2
0.2
0.2
0.2
0.2
0.2
0.2
0.2
0.2
