# vtk DataFile Version 2.0
data_197
ASCII
DATASET UNSTRUCTURED_GRID
POINTS 63 float
0.0 0.0 0.0
1.0 0.0 0.0
1.0 10.0 0.0
0.0 10.0 0.0
0.4999999999986921 0.0 0.0
1.0 0.499999999999551 0.0
1.0 0.9999999999991888 0.0
1.0 1.499999999998284 0.0
1.0 1.999999999996824 0.0
1.0 2.499999999995364 0.0
1.0 2.999999999993903 0.0
1.0 3.499999999992442 0.0
1.0 3.999999999991017 0.0
1.0 4.499999999991639 0.0
1.0 4.999999999992399 0.0
1.0 5.499999999993159 0.0
1.0 5.99999999999392 0.0
1.0 6.499999999994679 0.0
1.0 6.999999999995438 0.0
1.0 7.499999999996199 0.0
1.0 7.99999999999696 0.0
1.0 8.49999999999772 0.0
1.0 8.99999999999848 0.0
1.0 9.49999999999924 0.0
0.5000000000020595 10.0 0.0
0.0 9.5 0.0
0.0 8.999999999999998 0.0
0.0 8.499999999999998 0.0
0.0 7.999999999999996 0.0
0.0 7.499999999999995 0.0
0.0 6.999999999999995 0.0
0.0 6.499999999999996 0.0
0.0 5.999999999999996 0.0
0.0 5.499999999999996 0.0
0.0 4.999999999999996 0.0
0.0 4.499999999999997 0.0
0.0 3.999999999999996 0.0
0.0 3.499999999999997 0.0
0.0 2.999999999999998 0.0
0.0 2.499999999999998 0.0
0.0 1.999999999999998 0.0
0.0 1.5 0.0
0.0 0.9999999999999982 0.0
0.0 0.5 0.0
0.4999999999988605 0.4999999999997756 0.0
0.4999999999990288 0.9999999999995937 0.0
0.4999999999991972 1.499999999999142 0.0
0.4999999999993656 1.999999999998411 0.0
0.499999999999534 2.499999999997681 0.0
0.4999999999997023 2.999999999996951 0.0
0.4999999999998707 3.49999999999622 0.0
0.5000000000000391 3.999999999995507 0.0
0.5000000000002074 4.499999999995817 0.0
0.5000000000003758 4.999999999996198 0.0
0.5000000000005441 5.499999999996577 0.0
0.5000000000007125 5.999999999996958 0.0
0.500000000000881 6.499999999997339 0.0
0.5000000000010493 6.999999999997716 0.0
0.5000000000012177 7.499999999998098 0.0
0.500000000001386 7.999999999998479 0.0
0.5000000000015543 8.499999999998856 0.0
0.5000000000017226 8.99999999999924 0.0
0.5000000000018909 9.49999999999962 0.0
CELLS 40 200
4 0 4 44 43
4 43 44 45 42
4 42 45 46 41
4 41 46 47 40
4 40 47 48 39
4 39 48 49 38
4 38 49 50 37
4 37 50 51 36
4 36 51 52 35
4 35 52 53 34
4 34 53 54 33
4 33 54 55 32
4 32 55 56 31
4 31 56 57 30
4 30 57 58 29
4 29 58 59 28
4 28 59 60 27
4 27 60 61 26
4 26 61 62 25
4 25 62 24 3
4 4 1 5 44
4 44 5 6 45
4 45 6 7 46
4 46 7 8 47
4 47 8 9 48
4 48 9 10 49
4 49 10 11 50
4 50 11 12 51
4 51 12 13 52
4 52 13 14 53
4 53 14 15 54
4 54 15 16 55
4 55 16 17 56
4 56 17 18 57
4 57 18 19 58
4 58 19 20 59
4 59 20 21 60
4 60 21 22 61
4 61 22 23 62
4 62 23 2 24
CELL_TYPES 40
9
9
9
9
9
9
9
9
9
9
9
9
9
9
9
9
9
9
9
9
9
9
9
9
9
9
9
9
9
9
9
9
9
9
9
9
9
9
9
9
POINT_DATA 63
VECTORS displacement double
0.0 0.0 0.0
0.0 0.0 0.0
0.0 -1.366367070786059 0.0
0.0 -1.3663670707855877 0.0
-4.379774735707749e-16 0.0 0.0
0.0 -0.0851487689465521 0.0
0.0 -0.17026578733684078 0.0
0.0 -0.25523597527784814 0.0
0.0 -0.33975662482857577 0.0
0.0 -0.4233505166295777 0.0
0.0 -0.5053809066154369 0.0
0.0 -0.5851263784966091 0.0
0.0 -0.6618670974752343 0.0
0.0 -0.735006192925717 0.0
0.0 -0.8041627490016967 0.0
0.0 -0.8692599821356567 0.0
0.0 -0.9305310942667216 0.0
0.0 -0.9885565898602935 0.0
0.0 -1.044123280045913 0.0
0.0 -1.0980089760421738 0.0
0.0 -1.1507767461248009 0.0
0.0 -1.2026135830663258 0.0
0.0 -1.2532509362709856 0.0
0.0 -1.3028598071901678 0.0
3.9476251566757836e-14 -1.3301953207706139 0.0
0.0 -1.3028598071901316 0.0
0.0 -1.2532509362711162 0.0
0.0 -1.2026135830665547 0.0
0.0 -1.1507767461251164 0.0
0.0 -1.098008976042578 0.0
0.0 -1.0441232800464124 0.0
0.0 -0.9885565898608969 0.0
0.0 -0.9305310942674436 0.0
0.0 -0.8692599821365179 0.0
0.0 -0.8041627490027133 0.0
0.0 -0.7350061929269034 0.0
0.0 -0.6618670974765795 0.0
0.0 -0.5851263784977928 0.0
0.0 -0.5053809066164249 0.0
0.0 -0.4233505166303466 0.0
0.0 -0.33975662482911057 0.0
0.0 -0.2552359752781394 0.0
0.0 -0.1702657873369779 0.0
0.0 -0.08514876894662735 0.0
-1.1340432762593717e-16 -0.08514473144239199 0.0
1.7903112416575052e-16 -0.17025789193011098 0.0
1.460073371639103e-16 -0.2552279198263189 0.0
-1.3232008107105248e-16 -0.3397482975975438 0.0
-1.4918985024614202e-16 -0.4233472440452746 0.0
-5.713599713376474e-18 -0.5053798174738585 0.0
-5.174370177183899e-16 -0.5851317175411275 0.0
-2.8004293185571646e-17 -0.6618732500676269 0.0
-6.03119521807228e-17 -0.7350114832994288 0.0
4.491063823155122e-16 -0.8041655959393886 0.0
2.772826889715493e-16 -0.8692623021210539 0.0
4.876635017210999e-16 -0.9305331494180972 0.0
7.334621380938953e-16 -0.9885538609510652 0.0
-3.925953881305288e-16 -1.0441321458931847 0.0
-5.550067438059046e-16 -1.0980219401223503 0.0
-3.9620119482498385e-16 -1.1507801427664175 0.0
-1.6032196737898983e-15 -1.2026067566962606 0.0
-7.261539048138231e-15 -1.2531601657586164 0.0
-3.847011427655547e-14 -1.3010503414496408 0.0
VECTORS velocity double
0.0 0.0 0.0
0.0 0.0 0.0
0.0 17.07576316323932 0.0
0.0 17.07576316323898 0.0
-4.850473337170873e-15 0.0 0.0
0.0 0.9617692873903518 0.0
0.0 1.713640459278762 0.0
0.0 2.1805286475493864 0.0
0.0 2.366538518161682 0.0
0.0 2.381752748626468 0.0
0.0 2.3782706781855456 0.0
0.0 2.503950831537928 0.0
0.0 2.848729091666188 0.0
0.0 3.455657364146491 0.0
0.0 4.338819305437305 0.0
0.0 5.49169555421002 0.0
0.0 6.893229038658291 0.0
0.0 8.500529576867887 0.0
0.0 10.201959065986678 0.0
0.0 11.921669170229942 0.0
0.0 13.558082129903838 0.0
0.0 14.994275986844714 0.0
0.0 16.115695869724135 0.0
0.0 16.827545301775196 0.0
-3.8991380921510653e-14 17.080166802480452 0.0
0.0 16.827545301776816 0.0
0.0 16.11569586972669 0.0
0.0 14.994275986851147 0.0
0.0 13.558082129914311 0.0
0.0 11.921669170242524 0.0
0.0 10.201959066002168 0.0
0.0 8.500529576885228 0.0
0.0 6.893229038676843 0.0
0.0 5.491695554227849 0.0
0.0 4.338819305452718 0.0
0.0 3.45565736415916 0.0
0.0 2.8487290916742314 0.0
0.0 2.503950831541218 0.0
0.0 2.3782706781863396 0.0
0.0 2.3817527486263597 0.0
0.0 2.366538518162214 0.0
0.0 2.1805286475507417 0.0
0.0 1.7136404592799908 0.0
0.0 0.9617692873913177 0.0
7.163124873255265e-14 0.9604323262268804 0.0
2.664739207360386e-14 1.713223040104348 0.0
2.7343058129805868e-14 2.1782421615986216 0.0
-2.760527740186539e-14 2.3673036096579203 0.0
-2.2491536396351655e-13 2.3807490261074227 0.0
-1.2084611825214318e-13 2.379188356646205 0.0
-7.086337668340586e-14 2.5019442509546685 0.0
1.8597214512154307e-13 2.8464453634097175 0.0
1.4277618525436361e-13 3.4522433400129966 0.0
1.4491308047716928e-13 4.333173538958006 0.0
-7.596434045397121e-14 5.488698013038848 0.0
2.5736944530365948e-14 6.896899241904391 0.0
2.350816747060131e-13 8.502732432583468 0.0
-2.360414296781861e-13 10.202366063969773 0.0
-2.365636070580442e-13 11.92337590824066 0.0
-2.9576440269108597e-13 13.563143586082209 0.0
-7.612789831324908e-14 14.990150994506664 0.0
2.904941008221049e-13 16.114886945940956 0.0
2.0250867328250653e-13 16.832752594438755 0.0
VECTORS boundary_conditions double
1.0 1.0 0.0
1.0 1.0 0.0
1.0 0.0 0.0
1.0 0.0 0.0
0.0 1.0 0.0
1.0 0.0 0.0
1.0 0.0 0.0
1.0 0.0 0.0
1.0 0.0 0.0
1.0 0.0 0.0
1.0 0.0 0.0
1.0 0.0 0.0
1.0 0.0 0.0
1.0 0.0 0.0
1.0 0.0 0.0
1.0 0.0 0.0
1.0 0.0 0.0
1.0 0.0 0.0
1.0 0.0 0.0
1.0 0.0 0.0
1.0 0.0 0.0
1.0 0.0 0.0
1.0 0.0 0.0
1.0 0.0 0.0
0.0 0.0 0.0
1.0 0.0 0.0
1.0 0.0 0.0
1.0 0.0 0.0
1.0 0.0 0.0
1.0 0.0 0.0
1.0 0.0 0.0
1.0 0.0 0.0
1.0 0.0 0.0
1.0 0.0 0.0
1.0 0.0 0.0
1.0 0.0 0.0
1.0 0.0 0.0
1.0 0.0 0.0
1.0 0.0 0.0
1.0 0.0 0.0
1.0 0.0 0.0
1.0 0.0 0.0
1.0 0.0 0.0
1.0 0.0 0.0
0.0 0.0 0.0
0.0 0.0 0.0
0.0 0.0 0.0
0.0 0.0 0.0
0.0 0.0 0.0
0.0 0.0 0.0
0.0 0.0 0.0
0.0 0.0 0.0
0.0 0.0 0.0
0.0 0.0 0.0
0.0 0.0 0.0
0.0 0.0 0.0
0.0 0.0 0.0
0.0 0.0 0.0
0.0 0.0 0.0
0.0 0.0 0.0
0.0 0.0 0.0
0.0 0.0 0.0
0.0 0.0 0.0
CELL_DATA 40
SCALARS material_index double
LOOKUP_TABLE default
1.0
1.0
1.0
1.0
1.0
1.0
1.0
1.0
1.0
1.0
1.0
1.0
1.0
1.0
1.0
1.0
1.0
1.0
1.0
1.0
1.0
1.0
1.0
1.0
1.0
1.0
1.0
1.0
1.0
1.0
1.0
1.0
1.0
1.0
1.0
1.0
1.0
1.0
1.0
1.0
SCALARS material_prop_density double
LOOKUP_TABLE default
1500.0
1500.0
1500.0
1500.0
1500.0
1500.0
1500.0
1500.0
1500.0
1500.0
1500.0
1500.0
1500.0
1500.0
1500.0
1500.0
1500.0
1500.0
1500.0
1500.0
1500.0
1500.0
1500.0
1500.0
1500.0
1500.0
1500.0
1500.0
1500.0
1500.0
1500.0
1500.0
1500.0
1500.0
1500.0
1500.0
1500.0
1500.0
1500.0
1500.0
SCALARS material_prop_Young double
LOOKUP_TABLE default
30000000.0
30000000.0
30000000.0
30000000.0
30000000.0
30000000.0
30000000.0
30000000.0
30000000.0
30000000.0
30000000.0
30000000.0
30000000.0
30000000.0
30000000.0
30000000.0
30000000.0
30000000.0
30000000.0
30000000.0
30000000.0
30000000.0
30000000.0
30000000.0
30000000.0
30000000.0
30000000.0
30000000.0
30000000.0
30000000.0
30000000.0
30000000.0
30000000.0
30000000.0
30000000.0
30000000.0
30000000.0
30000000.0
30000000.0
30000000.0
SCALARS material_prop_poisson double
LOOKUP_TABLE default
0.2
0.2
0.2
0.2
0.2
0.2
0.2
0.2
0.2
0.2
0.2
0.2
0.2
0.2
0.2
0.2
0.2
0.2
0.2
0.2
0.2
0.2
0.2
0.2
0.2
0.2
0.2
0.2
0.2
0.2
0.2
0.2
0.2
0.2
0.2
0.2
0.2
0.2
0.2
0.2
