# vtk DataFile Version 2.0
data_77
ASCII
DATASET UNSTRUCTURED_GRID
POINTS 63 float
0.0 0.0 0.0
1.0 0.0 0.0
1.0 10.0 0.0
0.0 10.0 0.0
0.4999999999986921 0.0 0.0
1.0 0.499999999999551 0.0
1.0 0.9999999999991888 0.0
1.0 1.499999999998284 0.0
1.0 1.999999999996824 0.0
1.0 2.499999999995364 0.0
1.0 2.999999999993903 0.0
1.0 3.499999999992442 0.0
1.0 3.999999999991017 0.0
1.0 4.499999999991639 0.0
1.0 4.999999999992399 0.0
1.0 5.499999999993159 0.0
1.0 5.99999999999392 0.0
1.0 6.499999999994679 0.0
1.0 6.999999999995438 0.0
1.0 7.499999999996199 0.0
1.0 7.99999999999696 0.0
1.0 8.49999999999772 0.0
1.0 8.99999999999848 0.0
1.0 9.49999999999924 0.0
0.5000000000020595 10.0 0.0
0.0 9.5 0.0
0.0 8.999999999999998 0.0
0.0 8.499999999999998 0.0
0.0 7.999999999999996 0.0
0.0 7.499999999999995 0.0
0.0 6.999999999999995 0.0
0.0 6.499999999999996 0.0
0.0 5.999999999999996 0.0
0.0 5.499999999999996 0.0
0.0 4.999999999999996 0.0
0.0 4.499999999999997 0.0
0.0 3.999999999999996 0.0
0.0 3.499999999999997 0.0
0.0 2.999999999999998 0.0
0.0 2.499999999999998 0.0
0.0 1.999999999999998 0.0
0.0 1.5 0.0
0.0 0.9999999999999982 0.0
0.0 0.5 0.0
0.4999999999988605 0.4999999999997756 0.0
0.4999999999990288 0.9999999999995937 0.0
0.4999999999991972 1.499999999999142 0.0
0.4999999999993656 1.999999999998411 0.0
0.499999999999534 2.499999999997681 0.0
0.4999999999997023 2.999999999996951 0.0
0.4999999999998707 3.49999999999622 0.0
0.5000000000000391 3.999999999995507 0.0
0.5000000000002074 4.499999999995817 0.0
0.5000000000003758 4.999999999996198 0.0
0.5000000000005441 5.499999999996577 0.0
0.5000000000007125 5.999999999996958 0.0
0.500000000000881 6.499999999997339 0.0
0.5000000000010493 6.999999999997716 0.0
0.5000000000012177 7.499999999998098 0.0
0.500000000001386 7.999999999998479 0.0
0.5000000000015543 8.499999999998856 0.0
0.5000000000017226 8.99999999999924 0.0
0.5000000000018909 9.49999999999962 0.0
CELLS 40 200
4 0 4 44 43
4 43 44 45 42
4 42 45 46 41
4 41 46 47 40
4 40 47 48 39
4 39 48 49 38
4 38 49 50 37
4 37 50 51 36
4 36 51 52 35
4 35 52 53 34
4 34 53 54 33
4 33 54 55 32
4 32 55 56 31
4 31 56 57 30
4 30 57 58 29
4 29 58 59 28
4 28 59 60 27
4 27 60 61 26
4 26 61 62 25
4 25 62 24 3
4 4 1 5 44
4 44 5 6 45
4 45 6 7 46
4 46 7 8 47
4 47 8 9 48
4 48 9 10 49
4 49 10 11 50
4 50 11 12 51
4 51 12 13 52
4 52 13 14 53
4 53 14 15 54
4 54 15 16 55
4 55 16 17 56
4 56 17 18 57
4 57 18 19 58
4 58 19 20 59
4 59 20 21 60
4 60 21 22 61
4 61 22 23 62
4 62 23 2 24
CELL_TYPES 40
9
9
9
9
9
9
9
9
9
9
9
9
9
9
9
9
9
9
9
9
9
9
9
9
9
9
9
9
9
9
9
9
9
9
9
9
9
9
9
9
POINT_DATA 63
VECTORS displacement double
0.0 0.0 0.0
0.0 0.0 0.0
0.0 -1.4371422970763748 0.0
0.0 -1.4371422970759073 0.0
1.240630542982317e-15 0.0 0.0
0.0 -0.09151533711722448 0.0
0.0 -0.18366198014566942 0.0
0.0 -0.27637526955283565 0.0
0.0 -0.369759018155515 0.0
0.0 -0.4631173188931058 0.0
0.0 -0.555483815831884 0.0
0.0 -0.6455225654150274 0.0
0.0 -0.7312492976707471 0.0
0.0 -0.8112544330436446 0.0
0.0 -0.8850867565330951 0.0
0.0 -0.9523829233965013 0.0
0.0 -1.0141855238826731 0.0
0.0 -1.0719973493262231 0.0
0.0 -1.127203184070809 0.0
0.0 -1.1805604302153327 0.0
0.0 -1.2318327228615904 0.0
0.0 -1.2810166931740619 0.0
0.0 -1.3283244606431077 0.0
0.0 -1.374968092252282 0.0
4.291058308254767e-14 -1.4009094819817947 0.0
0.0 -1.3749680922522405 0.0
0.0 -1.3283244606432274 0.0
0.0 -1.2810166931742766 0.0
0.0 -1.2318327228618926 0.0
0.0 -1.1805604302157258 0.0
0.0 -1.1272031840713037 0.0
0.0 -1.0719973493268227 0.0
0.0 -1.0141855238833966 0.0
0.0 -0.9523829233973771 0.0
0.0 -0.8850867565341671 0.0
0.0 -0.8112544330449311 0.0
0.0 -0.731249297672236 0.0
0.0 -0.6455225654163587 0.0
0.0 -0.5554838158329996 0.0
0.0 -0.4631173188939677 0.0
0.0 -0.36975901815610873 0.0
0.0 -0.2763752695531555 0.0
0.0 -0.18366198014581847 0.0
0.0 -0.0915153371173088 0.0
-5.216599070793111e-16 -0.09144755655298133 0.0
2.567112953587111e-16 -0.18361053087075252 0.0
-7.510101985635749e-16 -0.27650784249835997 0.0
-2.092218348909988e-17 -0.36981850006994005 0.0
4.600619780231286e-16 -0.4629875094816779 0.0
-1.2575152361248388e-15 -0.5554271297718342 0.0
1.5687173053364826e-16 -0.6454876113258097 0.0
5.000766640280651e-16 -0.7313159935503915 0.0
1.0772698848714556e-15 -0.8113767476573871 0.0
-6.583918647915703e-16 -0.885132425761514 0.0
-6.076050107012035e-17 -0.9524316317057989 0.0
1.0357811565481212e-15 -1.0141152048343345 0.0
-2.9338485523755813e-16 -1.0719413924430998 0.0
-4.768905166560018e-16 -1.127086563800296 0.0
-1.1571857788010217e-15 -1.180474910762195 0.0
1.3210297412457912e-15 -1.2317362696748335 0.0
-2.020066028064335e-15 -1.2809405331740165 0.0
-9.470728351180748e-15 -1.3281691266617615 0.0
-3.6841516761415244e-14 -1.3730982819215407 0.0
VECTORS velocity double
0.0 0.0 0.0
0.0 0.0 0.0
0.0 -12.463625800134178 0.0
0.0 -12.463625800132707 0.0
-5.251397442533116e-13 0.0 0.0
0.0 1.486559289817171 0.0
0.0 2.760736346496478 0.0
0.0 3.1435218868352015 0.0
0.0 2.8020530000988835 0.0
0.0 1.7209797060359726 0.0
0.0 0.22026931901281266 0.0
0.0 -1.4006978352509147 0.0
0.0 -2.9893069057438595 0.0
0.0 -4.3986234908797375 0.0
0.0 -5.770867755224797 0.0
0.0 -6.968993866269493 0.0
0.0 -8.134036616977959 0.0
0.0 -9.37029732882286 0.0
0.0 -10.563538530883388 0.0
0.0 -11.314016256423994 0.0
0.0 -12.051143612448726 0.0
0.0 -12.395698743157638 0.0
0.0 -12.451697644874175 0.0
0.0 -12.383716264661093 0.0
9.063209879336598e-13 -12.485192993749518 0.0
0.0 -12.383716264662077 0.0
0.0 -12.451697644876758 0.0
0.0 -12.39569874315797 0.0
0.0 -12.051143612452153 0.0
0.0 -11.314016256430937 0.0
0.0 -10.56353853089127 0.0
0.0 -9.370297328837054 0.0
0.0 -8.134036616992073 0.0
0.0 -6.968993866285906 0.0
0.0 -5.770867755244238 0.0
0.0 -4.398623490902764 0.0
0.0 -2.9893069057709614 0.0
0.0 -1.4006978352768282 0.0
0.0 0.2202693189956655 0.0
0.0 1.7209797060226917 0.0
0.0 2.8020530000949257 0.0
0.0 3.143521886837391 0.0
0.0 2.7607363464982266 0.0
0.0 1.4865592898189357 0.0
4.623761119884821e-13 1.5601764259124271 0.0
-5.985571805227499e-13 2.6828076385253827 0.0
6.791691254692767e-14 3.0779760058293206 0.0
1.4729491125982978e-13 2.93371155039154 0.0
5.225056354804344e-13 1.7514199908226011 0.0
-5.615779355841357e-13 0.16909913137653199 0.0
2.5403878053243147e-13 -1.4348482571599597 0.0
-1.3378104116353497e-13 -3.080955914422951 0.0
-1.1778788997644445e-13 -4.361955324937387 0.0
4.4914059703236075e-13 -5.743805641718721 0.0
4.044766904387917e-13 -6.897573946789196 0.0
-8.214681868267793e-13 -8.066920883783801 0.0
-1.5787900057481516e-13 -9.351319006086875 0.0
1.0589832865616893e-12 -10.527886809414332 0.0
-1.5081654319719887e-13 -11.356330805992991 0.0
-1.5728694892153384e-12 -12.050529467390135 0.0
1.1283268783393902e-12 -12.470799591928992 0.0
6.148943255693334e-13 -12.468671699837298 0.0
-1.1495780179717427e-13 -12.469503585976195 0.0
VECTORS boundary_conditions double
1.0 1.0 0.0
1.0 1.0 0.0
1.0 0.0 0.0
1.0 0.0 0.0
0.0 1.0 0.0
1.0 0.0 0.0
1.0 0.0 0.0
1.0 0.0 0.0
1.0 0.0 0.0
1.0 0.0 0.0
1.0 0.0 0.0
1.0 0.0 0.0
1.0 0.0 0.0
1.0 0.0 0.0
1.0 0.0 0.0
1.0 0.0 0.0
1.0 0.0 0.0
1.0 0.0 0.0
1.0 0.0 0.0
1.0 0.0 0.0
1.0 0.0 0.0
1.0 0.0 0.0
1.0 0.0 0.0
1.0 0.0 0.0
0.0 0.0 0.0
1.0 0.0 0.0
1.0 0.0 0.0
1.0 0.0 0.0
1.0 0.0 0.0
1.0 0.0 0.0
1.0 0.0 0.0
1.0 0.0 0.0
1.0 0.0 0.0
1.0 0.0 0.0
1.0 0.0 0.0
1.0 0.0 0.0
1.0 0.0 0.0
1.0 0.0 0.0
1.0 0.0 0.0
1.0 0.0 0.0
1.0 0.0 0.0
1.0 0.0 0.0
1.0 0.0 0.0
1.0 0.0 0.0
0.0 0.0 0.0
0.0 0.0 0.0
0.0 0.0 0.0
0.0 0.0 0.0
0.0 0.0 0.0
0.0 0.0 0.0
0.0 0.0 0.0
0.0 0.0 0.0
0.0 0.0 0.0
0.0 0.0 0.0
0.0 0.0 0.0
0.0 0.0 0.0
0.0 0.0 0.0
0.0 0.0 0.0
0.0 0.0 0.0
0.0 0.0 0.0
0.0 0.0 0.0
0.0 0.0 0.0
0.0 0.0 0.0
CELL_DATA 40
SCALARS material_index double
LOOKUP_TABLE default
1.0
1.0
1.0
1.0
1.0
1.0
1.0
1.0
1.0
1.0
1.0
1.0
1.0
1.0
1.0
1.0
1.0
1.0
1.0
1.0
1.0
1.0
1.0
1.0
1.0
1.0
1.0
1.0
1.0
1.0
1.0
1.0
1.0
1.0
1.0
1.0
1.0
1.0
1.0
1.0
SCALARS material_prop_density double
LOOKUP_TABLE default
1500.0
1500.0
1500.0
1500.0
1500.0
1500.0
1500.0
1500.0
1500.0
1500.0
1500.0
1500.0
1500.0
1500.0
1500.0
1500.0
1500.0
1500.0
1500.0
1500.0
1500.0
1500.0
1500.0
1500.0
1500.0
1500.0
1500.0
1500.0
1500.0
1500.0
1500.0
1500.0
1500.0
1500.0
1500.0
1500.0
1500.0
1500.0
1500.0
1500.0
SCALARS material_prop_Young double
LOOKUP_TABLE default
30000000.0
30000000.0
30000000.0
30000000.0
30000000.0
30000000.0
30000000.0
30000000.0
30000000.0
30000000.0
30000000.0
30000000.0
30000000.0
30000000.0
30000000.0
30000000.0
30000000.0
30000000.0
30000000.0
30000000.0
30000000.0
30000000.0
30000000.0
30000000.0
30000000.0
30000000.0
30000000.0
30000000.0
30000000.0
30000000.0
30000000.0
30000000.0
30000000.0
30000000.0
30000000.0
30000000.0
30000000.0
30000000.0
30000000.0
30000000.0
SCALARS material_prop_poisson double
LOOKUP_TABLE default
0.2
0.2
0.2
0.2
0.2
0.2
0.2
0.2
0.2
0.2
0.2
0.2
0.2
0.2
0.2
0.2
0.2
0.2
0.2
0.2
0.2
0.2
0.2
0.2
0.2
0.2
0.2
0.2
0.2
0.2
0.2
0.2
0.2
0.2
0.2
0.2
0.2
0.2
0.2
0.2
