# vtk DataFile Version 2.0
data_103
ASCII
DATASET UNSTRUCTURED_GRID
POINTS 804 float
0.0 0.0 0.0
0.1 0.0 0.0
0.1 20.0 0.0
0.0 20.0 0.0
0.0 0.0 -0.1
0.1 0.0 -0.1
0.1 20.0 -0.1
0.0 20.0 -0.1
0.1 0.09999999999992462 0.0
0.1 0.1999999999998517 0.0
0.1 0.2999999999997818 0.0
0.1 0.399999999999712 0.0
0.1 0.4999999999996377 0.0
0.1 0.5999999999995541 0.0
0.1 0.6999999999994495 0.0
0.1 0.7999999999993355 0.0
0.1 0.8999999999992101 0.0
0.1 0.999999999999102 0.0
0.1 1.099999999999006 0.0
0.1 1.199999999998936 0.0
0.1 1.299999999998867 0.0
0.1 1.399999999998797 0.0
0.1 1.499999999998727 0.0
0.1 1.599999999998657 0.0
0.1 1.699999999998587 0.0
0.1 1.799999999998517 0.0
0.1 1.899999999998447 0.0
0.1 1.999999999998378 0.0
0.1 2.099999999998308 0.0
0.1 2.199999999998238 0.0
0.1 2.299999999998168 0.0
0.1 2.399999999998067 0.0
0.1 2.499999999997942 0.0
0.1 2.599999999997706 0.0
0.1 2.699999999997444 0.0
0.1 2.799999999997153 0.0
0.1 2.899999999996861 0.0
0.1 2.999999999996569 0.0
0.1 3.099999999996277 0.0
0.1 3.199999999995984 0.0
0.1 3.299999999995693 0.0
0.1 3.399999999995401 0.0
0.1 3.499999999995108 0.0
0.1 3.599999999994816 0.0
0.1 3.699999999994525 0.0
0.1 3.799999999994232 0.0
0.1 3.89999999999394 0.0
0.1 3.999999999993648 0.0
0.1 4.099999999993356 0.0
0.1 4.199999999993064 0.0
0.1 4.299999999992772 0.0
0.1 4.399999999992479 0.0
0.1 4.499999999992188 0.0
0.1 4.599999999991895 0.0
0.1 4.699999999991603 0.0
0.1 4.799999999991311 0.0
0.1 4.899999999991019 0.0
0.1 4.999999999990727 0.0
0.1 5.099999999990436 0.0
0.1 5.199999999990144 0.0
0.1 5.299999999989851 0.0
0.1 5.399999999989559 0.0
0.1 5.499999999989267 0.0
0.1 5.599999999988975 0.0
0.1 5.699999999988683 0.0
0.1 5.799999999988391 0.0
0.1 5.899999999988099 0.0
0.1 5.999999999987806 0.0
0.1 6.099999999987515 0.0
0.1 6.199999999987222 0.0
0.1 6.299999999986929 0.0
0.1 6.399999999986638 0.0
0.1 6.499999999986345 0.0
0.1 6.599999999986054 0.0
0.1 6.699999999985762 0.0
0.1 6.79999999998547 0.0
0.1 6.899999999985177 0.0
0.1 6.999999999984885 0.0
0.1 7.099999999984593 0.0
0.1 7.199999999984302 0.0
0.1 7.299999999984009 0.0
0.1 7.399999999983717 0.0
0.1 7.499999999983426 0.0
0.1 7.599999999983132 0.0
0.1 7.699999999982841 0.0
0.1 7.799999999982549 0.0
0.1 7.899999999982256 0.0
0.1 7.999999999982034 0.0
0.1 8.099999999981964 0.0
0.1 8.199999999982062 0.0
0.1 8.299999999982214 0.0
0.1 8.399999999982366 0.0
0.1 8.499999999982517 0.0
0.1 8.59999999998267 0.0
0.1 8.699999999982822 0.0
0.1 8.799999999982973 0.0
0.1 8.899999999983125 0.0
0.1 8.999999999983277 0.0
0.1 9.09999999998343 0.0
0.1 9.19999999998358 0.0
0.1 9.299999999983733 0.0
0.1 9.399999999983885 0.0
0.1 9.499999999984038 0.0
0.1 9.599999999984188 0.0
0.1 9.69999999998434 0.0
0.1 9.799999999984493 0.0
0.1 9.899999999984646 0.0
0.1 9.999999999984798 0.0
0.1 10.09999999998495 0.0
0.1 10.1999999999851 0.0
0.1 10.29999999998525 0.0
0.1 10.39999999998541 0.0
0.1 10.49999999998556 0.0
0.1 10.59999999998571 0.0
0.1 10.69999999998586 0.0
0.1 10.79999999998601 0.0
0.1 10.89999999998616 0.0
0.1 10.99999999998632 0.0
0.1 11.09999999998647 0.0
0.1 11.19999999998662 0.0
0.1 11.29999999998677 0.0
0.1 11.39999999998693 0.0
0.1 11.49999999998708 0.0
0.1 11.59999999998723 0.0
0.1 11.69999999998738 0.0
0.1 11.79999999998754 0.0
0.1 11.89999999998769 0.0
0.1 11.99999999998784 0.0
0.1 12.09999999998799 0.0
0.1 12.19999999998814 0.0
0.1 12.2999999999883 0.0
0.1 12.39999999998845 0.0
0.1 12.4999999999886 0.0
0.1 12.59999999998875 0.0
0.1 12.6999999999889 0.0
0.1 12.79999999998905 0.0
0.1 12.89999999998921 0.0
0.1 12.99999999998936 0.0
0.1 13.09999999998951 0.0
0.1 13.19999999998966 0.0
0.1 13.29999999998982 0.0
0.1 13.39999999998997 0.0
0.1 13.49999999999012 0.0
0.1 13.59999999999027 0.0
0.1 13.69999999999042 0.0
0.1 13.79999999999057 0.0
0.1 13.89999999999073 0.0
0.1 13.99999999999088 0.0
0.1 14.09999999999103 0.0
0.1 14.19999999999118 0.0
0.1 14.29999999999134 0.0
0.1 14.39999999999149 0.0
0.1 14.49999999999164 0.0
0.1 14.59999999999179 0.0
0.1 14.69999999999194 0.0
0.1 14.7999999999921 0.0
0.1 14.89999999999225 0.0
0.1 14.9999999999924 0.0
0.1 15.09999999999255 0.0
0.1 15.1999999999927 0.0
0.1 15.29999999999285 0.0
0.1 15.39999999999301 0.0
0.1 15.49999999999316 0.0
0.1 15.59999999999331 0.0
0.1 15.69999999999346 0.0
0.1 15.79999999999362 0.0
0.1 15.89999999999377 0.0
0.1 15.99999999999392 0.0
0.1 16.09999999999407 0.0
0.1 16.19999999999422 0.0
0.1 16.29999999999437 0.0
0.1 16.39999999999453 0.0
0.1 16.49999999999468 0.0
0.1 16.59999999999483 0.0
0.1 16.69999999999498 0.0
0.1 16.79999999999514 0.0
0.1 16.89999999999528 0.0
0.1 16.99999999999544 0.0
0.1 17.09999999999559 0.0
0.1 17.19999999999574 0.0
0.1 17.29999999999589 0.0
0.1 17.39999999999605 0.0
0.1 17.4999999999962 0.0
0.1 17.59999999999635 0.0
0.1 17.6999999999965 0.0
0.1 17.79999999999665 0.0
0.1 17.89999999999681 0.0
0.1 17.99999999999696 0.0
0.1 18.09999999999711 0.0
0.1 18.19999999999726 0.0
0.1 18.29999999999742 0.0
0.1 18.39999999999757 0.0
0.1 18.49999999999772 0.0
0.1 18.59999999999787 0.0
0.1 18.69999999999802 0.0
0.1 18.79999999999818 0.0
0.1 18.89999999999833 0.0
0.1 18.99999999999848 0.0
0.1 19.09999999999863 0.0
0.1 19.19999999999878 0.0
0.1 19.29999999999894 0.0
0.1 19.39999999999909 0.0
0.1 19.49999999999924 0.0
0.1 19.59999999999939 0.0
0.1 19.69999999999955 0.0
0.1 19.7999999999997 0.0
0.1 19.89999999999985 0.0
0.0 19.9 0.0
0.0 19.8 0.0
0.0 19.7 0.0
0.0 19.6 0.0
0.0 19.5 0.0
0.0 19.4 0.0
0.0 19.3 0.0
0.0 19.2 0.0
0.0 19.1 0.0
0.0 19.0 0.0
0.0 18.9 0.0
0.0 18.8 0.0
0.0 18.7 0.0
0.0 18.6 0.0
0.0 18.5 0.0
0.0 18.4 0.0
0.0 18.3 0.0
0.0 18.2 0.0
0.0 18.1 0.0
0.0 18.0 0.0
0.0 17.9 0.0
0.0 17.8 0.0
0.0 17.7 0.0
0.0 17.6 0.0
0.0 17.5 0.0
0.0 17.4 0.0
0.0 17.3 0.0
0.0 17.2 0.0
0.0 17.09999999999999 0.0
0.0 17.0 0.0
0.0 16.9 0.0
0.0 16.8 0.0
0.0 16.7 0.0
0.0 16.59999999999999 0.0
0.0 16.49999999999999 0.0
0.0 16.4 0.0
0.0 16.29999999999999 0.0
0.0 16.2 0.0
0.0 16.09999999999999 0.0
0.0 15.99999999999999 0.0
0.0 15.89999999999999 0.0
0.0 15.79999999999999 0.0
0.0 15.69999999999999 0.0
0.0 15.59999999999999 0.0
0.0 15.49999999999999 0.0
0.0 15.39999999999999 0.0
0.0 15.29999999999999 0.0
0.0 15.19999999999999 0.0
0.0 15.09999999999999 0.0
0.0 14.99999999999999 0.0
0.0 14.89999999999999 0.0
0.0 14.79999999999999 0.0
0.0 14.69999999999999 0.0
0.0 14.59999999999999 0.0
0.0 14.49999999999999 0.0
0.0 14.39999999999999 0.0
0.0 14.29999999999999 0.0
0.0 14.19999999999999 0.0
0.0 14.09999999999999 0.0
0.0 13.99999999999999 0.0
0.0 13.89999999999999 0.0
0.0 13.79999999999999 0.0
0.0 13.69999999999999 0.0
0.0 13.59999999999999 0.0
0.0 13.49999999999999 0.0
0.0 13.39999999999999 0.0
0.0 13.29999999999999 0.0
0.0 13.19999999999999 0.0
0.0 13.09999999999999 0.0
0.0 12.99999999999999 0.0
0.0 12.89999999999999 0.0
0.0 12.79999999999999 0.0
0.0 12.69999999999999 0.0
0.0 12.59999999999999 0.0
0.0 12.49999999999999 0.0
0.0 12.39999999999999 0.0
0.0 12.29999999999999 0.0
0.0 12.19999999999999 0.0
0.0 12.09999999999999 0.0
0.0 11.99999999999999 0.0
0.0 11.89999999999999 0.0
0.0 11.79999999999999 0.0
0.0 11.69999999999999 0.0
0.0 11.59999999999999 0.0
0.0 11.49999999999999 0.0
0.0 11.39999999999999 0.0
0.0 11.29999999999999 0.0
0.0 11.19999999999999 0.0
0.0 11.09999999999999 0.0
0.0 10.99999999999999 0.0
0.0 10.89999999999999 0.0
0.0 10.79999999999999 0.0
0.0 10.69999999999999 0.0
0.0 10.59999999999999 0.0
0.0 10.49999999999999 0.0
0.0 10.39999999999999 0.0
0.0 10.29999999999999 0.0
0.0 10.19999999999999 0.0
0.0 10.09999999999999 0.0
0.0 9.999999999999993 0.0
0.0 9.899999999999993 0.0
0.0 9.799999999999994 0.0
0.0 9.699999999999992 0.0
0.0 9.599999999999993 0.0
0.0 9.499999999999993 0.0
0.0 9.399999999999993 0.0
0.0 9.299999999999995 0.0
0.0 9.199999999999996 0.0
0.0 9.099999999999994 0.0
0.0 8.999999999999995 0.0
0.0 8.899999999999995 0.0
0.0 8.799999999999994 0.0
0.0 8.699999999999994 0.0
0.0 8.599999999999994 0.0
0.0 8.499999999999995 0.0
0.0 8.399999999999995 0.0
0.0 8.299999999999994 0.0
0.0 8.199999999999994 0.0
0.0 8.099999999999994 0.0
0.0 7.999999999999993 0.0
0.0 7.899999999999995 0.0
0.0 7.799999999999995 0.0
0.0 7.699999999999996 0.0
0.0 7.599999999999996 0.0
0.0 7.499999999999996 0.0
0.0 7.399999999999995 0.0
0.0 7.299999999999995 0.0
0.0 7.199999999999996 0.0
0.0 7.099999999999994 0.0
0.0 6.999999999999995 0.0
0.0 6.899999999999995 0.0
0.0 6.799999999999995 0.0
0.0 6.699999999999996 0.0
0.0 6.599999999999994 0.0
0.0 6.499999999999995 0.0
0.0 6.399999999999997 0.0
0.0 6.299999999999997 0.0
0.0 6.199999999999996 0.0
0.0 6.099999999999996 0.0
0.0 5.999999999999996 0.0
0.0 5.899999999999997 0.0
0.0 5.799999999999997 0.0
0.0 5.699999999999996 0.0
0.0 5.599999999999996 0.0
0.0 5.499999999999996 0.0
0.0 5.399999999999995 0.0
0.0 5.299999999999995 0.0
0.0 5.199999999999996 0.0
0.0 5.099999999999996 0.0
0.0 4.999999999999998 0.0
0.0 4.899999999999999 0.0
0.0 4.799999999999997 0.0
0.0 4.699999999999998 0.0
0.0 4.599999999999998 0.0
0.0 4.499999999999996 0.0
0.0 4.399999999999997 0.0
0.0 4.299999999999997 0.0
0.0 4.199999999999998 0.0
0.0 4.099999999999998 0.0
0.0 3.999999999999996 0.0
0.0 3.899999999999999 0.0
0.0 3.799999999999997 0.0
0.0 3.699999999999996 0.0
0.0 3.599999999999998 0.0
0.0 3.5 0.0
0.0 3.399999999999999 0.0
0.0 3.299999999999997 0.0
0.0 3.199999999999999 0.0
0.0 3.099999999999998 0.0
0.0 3.0 0.0
0.0 2.899999999999999 0.0
0.0 2.799999999999997 0.0
0.0 2.699999999999999 0.0
0.0 2.599999999999998 0.0
0.0 2.499999999999996 0.0
0.0 2.399999999999999 0.0
0.0 2.299999999999997 0.0
0.0 2.199999999999999 0.0
0.0 2.100000000000001 0.0
0.0 2.0 0.0
0.0 1.899999999999999 0.0
0.0 1.800000000000001 0.0
0.0 1.699999999999999 0.0
0.0 1.599999999999998 0.0
0.0 1.5 0.0
0.0 1.399999999999999 0.0
0.0 1.299999999999997 0.0
0.0 1.199999999999999 0.0
0.0 1.099999999999998 0.0
0.0 1.0 0.0
0.0 0.8999999999999986 0.0
0.0 0.8000000000000007 0.0
0.0 0.6999999999999993 0.0
0.0 0.6000000000000014 0.0
0.0 0.5 0.0
0.0 0.3999999999999986 0.0
0.0 0.3000000000000007 0.0
0.0 0.1999999999999993 0.0
[...]
POINT_DATA 804
VECTORS displacement double
0.0 0.0 0.0
0.0 0.0 0.0
0.0 -0.0017896528127337608 0.0
0.0 -0.0017896528127337343 0.0
0.0 0.0 0.0
0.0 0.0 0.0
0.0 -0.0017896528127337727 0.0
0.0 -0.0017896528127337417 0.0
0.0 -6.60048829209512e-108 0.0
0.0 3.6502173651266654e-107 0.0
0.0 -1.9495942406937616e-106 0.0
0.0 1.0382531409530274e-105 0.0
0.0 -5.518823309686009e-105 0.0
0.0 2.9279609641715043e-104 0.0
0.0 -1.5503630573750347e-103 0.0
0.0 8.192612253116633e-103 0.0
0.0 -4.320180907227585e-102 0.0
0.0 2.2732107658252683e-101 0.0
0.0 -1.1934416911304683e-100 0.0
0.0 6.250999235606072e-100 0.0
0.0 -3.266213721411078e-99 0.0
0.0 1.7023292252488004e-98 0.0
0.0 -8.849105295877471e-98 0.0
0.0 4.5873357805704106e-97 0.0
0.0 -2.3712107492362825e-96 0.0
0.0 1.22198207703201e-95 0.0
0.0 -6.277306284799194e-95 0.0
0.0 3.2137700457198653e-94 0.0
0.0 -1.6394447172318953e-93 0.0
0.0 8.331292019602537e-93 0.0
0.0 -4.216351186658086e-92 0.0
0.0 2.124334546218317e-91 0.0
0.0 -1.0651121604190349e-90 0.0
0.0 5.311807058721064e-90 0.0
0.0 -2.63332292203625e-89 0.0
0.0 1.2967478492529497e-88 0.0
0.0 -6.33686207695701e-88 0.0
0.0 3.0688489463499483e-87 0.0
0.0 -1.4697708742192388e-86 0.0
0.0 6.934263376516184e-86 0.0
0.0 -3.19368605342866e-85 0.0
0.0 1.3991211577729847e-84 0.0
0.0 -5.305110307759153e-84 0.0
0.0 8.894322648262513e-84 0.0
0.0 1.6981279417797704e-82 0.0
0.0 -3.669941012076589e-81 0.0
0.0 5.653441847023998e-80 0.0
0.0 -8.002024765259483e-79 0.0
0.0 1.0939381871599862e-77 0.0
0.0 -1.4619654061377006e-76 0.0
0.0 1.914363040752347e-75 0.0
0.0 -2.455093546553529e-74 0.0
0.0 3.0799026792493084e-73 0.0
0.0 -3.773650033490923e-72 0.0
0.0 4.507783338190527e-71 0.0
0.0 -5.2387591428948625e-70 0.0
0.0 5.908303073431789e-69 0.0
0.0 -6.4463821864098225e-68 0.0
0.0 6.777528929348236e-67 0.0
0.0 -6.830638782149686e-66 0.0
0.0 6.551551678740497e-65 0.0
0.0 -5.916709394384371e-64 0.0
0.0 4.945169294217507e-63 0.0
0.0 -3.705576688418008e-62 0.0
0.0 2.3147369236705395e-61 0.0
0.0 -9.255052708637188e-61 0.0
0.0 -2.960742890810892e-60 0.0
0.0 1.2013812909903972e-58 0.0
0.0 -1.6913903162213655e-57 0.0
0.0 1.7419957557627246e-56 0.0
0.0 -1.4140171155947766e-55 0.0
0.0 8.422611930076121e-55 0.0
0.0 -2.0363938476977176e-54 0.0
0.0 -3.286246802900499e-53 0.0
0.0 6.316311011189595e-52 0.0
0.0 -6.649369680656898e-51 0.0
0.0 4.76185523771477e-50 0.0
0.0 -1.7700905746632885e-49 0.0
0.0 -1.0259725305393782e-48 0.0
0.0 2.6389899104463447e-47 0.0
0.0 -2.729786364569344e-46 0.0
0.0 1.6462085012424614e-45 0.0
0.0 -1.6280683718445657e-45 0.0
0.0 -9.397654991034745e-44 0.0
0.0 1.241541668539525e-42 0.0
0.0 -8.184201388740036e-42 0.0
0.0 1.0081636238210283e-41 0.0
0.0 4.336858602723176e-40 0.0
0.0 -5.379071701023599e-39 0.0
0.0 2.8460114996950054e-38 0.0
0.0 5.631769861015169e-38 0.0
0.0 -2.3837754929885602e-36 0.0
0.0 1.9392743238882973e-35 0.0
0.0 -3.117002873762852e-35 0.0
0.0 -9.214046572251116e-34 0.0
0.0 9.878587821570703e-33 0.0
0.0 -2.6377133428426895e-32 0.0
0.0 -3.798526300895527e-31 0.0
0.0 4.447500208377509e-30 0.0
0.0 -1.0179827576612873e-29 0.0
0.0 -1.8499717288818569e-28 0.0
0.0 1.7823195271050754e-27 0.0
0.0 -6.401960989106781e-28 0.0
0.0 -9.414554919977415e-26 0.0
0.0 5.398589413016408e-25 0.0
0.0 2.3227911456621125e-24 0.0
0.0 -3.8804993730523934e-23 0.0
0.0 4.153883653010824e-23 0.0
0.0 1.8019846211210712e-21 0.0
0.0 -7.98068598339499e-21 0.0
0.0 -6.466774261575725e-20 0.0
0.0 5.342211023402778e-19 0.0
0.0 1.9706830820091385e-18 0.0
0.0 -2.718274127768569e-17 0.0
0.0 -6.050520234794176e-17 0.0
0.0 1.2078140260805734e-15 0.0
0.0 2.545944070152011e-15 0.0
0.0 -4.830781798928226e-14 0.0
0.0 -1.5100143423847949e-13 0.0
0.0 1.6340084941187074e-12 0.0
0.0 9.085210990090476e-12 0.0
0.0 -3.5011225683162535e-11 0.0
0.0 -4.297454364142906e-10 0.0
0.0 -4.6048549006279784e-10 0.0
0.0 1.1792969193538505e-08 0.0
0.0 7.319610588289084e-08 0.0
0.0 6.7122271088026e-08 0.0
0.0 -1.6086559967664568e-06 0.0
0.0 -1.2887694026386835e-05 0.0
0.0 -5.8390769682509915e-05 0.0
0.0 -0.00018925829285801828 0.0
0.0 -0.00047015518117928705 0.0
0.0 -0.00092022001773041 0.0
0.0 -0.0014371367531289343 0.0
0.0 -0.001811520456131596 0.0
0.0 -0.0018987283834034773 0.0
0.0 -0.0017920123101931233 0.0
0.0 -0.001727423410521499 0.0
0.0 -0.0017843738567077099 0.0
0.0 -0.0018263094667084884 0.0
0.0 -0.001783986780886173 0.0
0.0 -0.0017637285742637336 0.0
0.0 -0.0018003319354202333 0.0
0.0 -0.0018005991684064146 0.0
0.0 -0.0017729021222162803 0.0
0.0 -0.0017883649605735005 0.0
0.0 -0.001800087212040288 0.0
0.0 -0.0017795131116862552 0.0
0.0 -0.0017860618202907733 0.0
0.0 -0.0017972861018165298 0.0
0.0 -0.0017818651414595401 0.0
0.0 -0.001787213976105262 0.0
0.0 -0.0017947426350869765 0.0
0.0 -0.0017823307821409262 0.0
0.0 -0.0017895543778350953 0.0
0.0 -0.0017919157126804496 0.0
0.0 -0.0017829179858456269 0.0
0.0 -0.0017918688933562777 0.0
0.0 -0.0017884142970577993 0.0
0.0 -0.0017850740399423803 0.0
0.0 -0.0017925431545250327 0.0
0.0 -0.0017853152649924438 0.0
0.0 -0.0017887758475491513 0.0
0.0 -0.0017902698847634554 0.0
0.0 -0.0017850205587988377 0.0
0.0 -0.0017914403302352134 0.0
0.0 -0.0017864966584714664 0.0
0.0 -0.0017882773163526583 0.0
0.0 -0.001789971858708178 0.0
0.0 -0.0017856959986197228 0.0
0.0 -0.0017909810953499554 0.0
0.0 -0.0017863250623568268 0.0
0.0 -0.0017891296046496235 0.0
0.0 -0.0017887359382403988 0.0
0.0 -0.0017868327182218387 0.0
0.0 -0.0017904068046490924 0.0
0.0 -0.0017860569588972986 0.0
0.0 -0.0017902612752633907 0.0
0.0 -0.0017869622313235294 0.0
0.0 -0.0017888660284017248 0.0
0.0 -0.001788547808858689 0.0
0.0 -0.0017873586275816674 0.0
0.0 -0.0017897768259144506 0.0
0.0 -0.0017865258630407827 0.0
0.0 -0.0017901738814373074 0.0
0.0 -0.001786540793714553 0.0
0.0 -0.0017898137192359517 0.0
0.0 -0.0017871566041875813 0.0
0.0 -0.0017890375747605558 0.0
0.0 -0.0017880045989758272 0.0
0.0 -0.0017881916139220585 0.0
0.0 -0.0017887928383414765 0.0
0.0 -0.001787498221041336 0.0
0.0 -0.0017893710549494485 0.0
0.0 -0.001787041689023808 0.0
0.0 -0.0017897098227583749 0.0
0.0 -0.0017868096475521886 0.0
0.0 -0.0017898504100844652 0.0
0.0 -0.00178674333641737 0.0
0.0 -0.001789859807746521 0.0
0.0 -0.0017867744862970648 0.0
0.0 -0.0017898027677423194 0.0
0.0 -0.0017868448305765677 0.0
0.0 -0.001789729532079795 0.0
0.0 -0.0017869126614333496 0.0
0.0 -0.001789673436046515 0.0
0.0 -0.0017869524815904573 0.0
0.0 -0.0017869524815904653 0.0
0.0 -0.0017896734360465048 0.0
0.0 -0.0017869126614333544 0.0
0.0 -0.0017897295320797885 0.0
0.0 -0.0017868448305765935 0.0
0.0 -0.0017898027677423108 0.0
0.0 -0.0017867744862970832 0.0
0.0 -0.0017898598077464897 0.0
0.0 -0.0017867433364173984 0.0
0.0 -0.0017898504100844683 0.0
0.0 -0.0017868096475522012 0.0
0.0 -0.001789709822758348 0.0
0.0 -0.001787041689023818 0.0
0.0 -0.0017893710549494188 0.0
0.0 -0.001787498221041355 0.0
0.0 -0.001788792838341441 0.0
0.0 -0.0017881916139220765 0.0
0.0 -0.0017880045989758027 0.0
0.0 -0.0017890375747605896 0.0
0.0 -0.0017871566041875648 0.0
0.0 -0.0017898137192359647 0.0
0.0 -0.0017865407937145506 0.0
0.0 -0.001790173881437295 0.0
0.0 -0.0017865258630407976 0.0
0.0 -0.001789776825914412 0.0
0.0 -0.0017873586275817192 0.0
0.0 -0.0017885478088585953 0.0
0.0 -0.00178886602840182 0.0
0.0 -0.0017869622313234368 0.0
0.0 -0.0017902612752634494 0.0
0.0 -0.001786056958897295 0.0
0.0 -0.0017904068046490458 0.0
0.0 -0.0017868327182219506 0.0
0.0 -0.0017887359382402367 0.0
0.0 -0.001789129604649798 0.0
0.0 -0.0017863250623567036 0.0
0.0 -0.0017909810953499808 0.0
0.0 -0.0017856959986198293 0.0
0.0 -0.0017899718587079708 0.0
0.0 -0.0017882773163529259 0.0
0.0 -0.001786496658471215 0.0
0.0 -0.001791440330235324 0.0
0.0 -0.0017850205587989513 0.0
0.0 -0.0017902698847631594 0.0
0.0 -0.0017887758475495685 0.0
0.0 -0.0017853152649921415 0.0
0.0 -0.0017925431545250154 0.0
0.0 -0.0017850740399427574 0.0
0.0 -0.0017884142970572068 0.0
0.0 -0.0017918688933567406 0.0
0.0 -0.0017829179858456588 0.0
0.0 -0.0017919157126798405 0.0
0.0 -0.0017895543778359273 0.0
0.0 -0.0017823307821405129 0.0
0.0 -0.0017947426350864958 0.0
0.0 -0.0017872139761064257 0.0
0.0 -0.001781865141458716 0.0
0.0 -0.0017972861018160841 0.0
0.0 -0.0017860618202923727 0.0
0.0 -0.0017795131116851155 0.0
0.0 -0.0018000872120393938 0.0
0.0 -0.0017883649605758814 0.0
0.0 -0.0017729021222154244 0.0
0.0 -0.001800599168403902 0.0
0.0 -0.0018003319354231752 0.0
0.0 -0.0017637285742654644 0.0
0.0 -0.0017839867808811226 0.0
0.0 -0.0018263094667078 0.0
0.0 -0.001784373856715516 0.0
0.0 -0.001727423410522079 0.0
0.0 -0.0017920123101803163 0.0
0.0 -0.0018987283833986099 0.0
0.0 -0.0018115204561578223 0.0
0.0 -0.0014371367531829883 0.0
0.0 -0.0009202200177887558 0.0
0.0 -0.0004701551812221389 0.0
0.0 -0.000189258292881045 0.0
0.0 -5.8390769691725464e-05 0.0
0.0 -1.2887694029057559e-05 0.0
0.0 -1.60865599726894e-06 0.0
0.0 6.712227105553584e-08 0.0
0.0 7.31961058951305e-08 0.0
0.0 1.1792969197356632e-08 0.0
0.0 -4.6048548982498595e-10 0.0
0.0 -4.297454365091924e-10 0.0
0.0 -3.501122570251499e-11 0.0
0.0 9.085210991117983e-12 0.0
0.0 1.6340084947782775e-12 0.0
0.0 -1.5100143422833615e-13 0.0
0.0 -4.830781800715601e-14 0.0
0.0 2.5459440693807593e-15 0.0
0.0 1.207814026535656e-15 0.0
0.0 -6.050520232821924e-17 0.0
0.0 -2.7182741289097593e-17 0.0
0.0 1.9706830817971953e-18 0.0
0.0 5.342211026136111e-19 0.0
0.0 -6.466774262264405e-20 0.0
0.0 -7.980685989125756e-21 0.0
0.0 1.8019846216189046e-21 0.0
0.0 4.153883661817279e-23 0.0
0.0 -3.8804993747645286e-23 0.0
0.0 2.3227911452829965e-24 0.0
0.0 5.39858941680472e-25 0.0
0.0 -9.41455492288333e-26 0.0
0.0 -6.401961032930821e-28 0.0
0.0 1.7823195281352002e-27 0.0
0.0 -1.849971729229106e-28 0.0
0.0 -1.0179827591561936e-29 0.0
0.0 4.447500210861806e-30 0.0
0.0 -3.798526301399861e-31 0.0
0.0 -2.6377133465789765e-32 0.0
0.0 9.878587827589042e-33 0.0
0.0 -9.214046574321001e-34 0.0
0.0 -3.1170028810038016e-35 0.0
0.0 1.939274325315774e-35 0.0
0.0 -2.383775493963545e-36 0.0
0.0 5.63176985275578e-38 0.0
0.0 2.8460115026026623e-38 0.0
0.0 -5.3790717044402464e-39 0.0
0.0 4.336858603830713e-40 0.0
0.0 1.0081636272084853e-41 0.0
0.0 -8.184201396247262e-42 0.0
0.0 1.2415416693479074e-42 0.0
0.0 -9.397654994374865e-44 0.0
0.0 -1.6280683775156045e-45 0.0
0.0 1.6462085027653033e-45 0.0
0.0 -2.729786366652604e-46 0.0
0.0 2.6389899124489975e-47 0.0
0.0 -1.0259725320300908e-48 0.0
0.0 -1.770090573315621e-49 0.0
0.0 4.76185523470713e-50 0.0
0.0 -6.649369672013945e-51 0.0
0.0 6.316310989547267e-52 0.0
0.0 -3.2862467549613907e-53 0.0
0.0 -2.0363939466404433e-54 0.0
0.0 8.422612127432675e-55 0.0
0.0 -1.4140171544150763e-55 0.0
0.0 1.7419958316981498e-56 0.0
0.0 -1.6913904641680977e-57 0.0
0.0 1.2013815777597135e-58 0.0
0.0 -2.9607484117204177e-60 0.0
0.0 -9.25504216468851e-61 0.0
0.0 2.3147349274548802e-61 0.0
0.0 -3.7055729431780247e-62 0.0
0.0 4.945162332023056e-63 0.0
0.0 -5.9166965730951914e-64 0.0
0.0 6.551528295268155e-65 0.0
0.0 -6.830596567737864e-66 0.0
0.0 6.777453551517285e-67 0.0
0.0 -6.4462492194470796e-68 0.0
0.0 5.908071754894495e-69 0.0
0.0 -5.2383632760692463e-70 0.0
0.0 4.507119387548271e-71 0.0
0.0 -3.7725649218191794e-72 0.0
0.0 3.078190668373414e-73 0.0
0.0 -2.4525287999485802e-74 0.0
0.0 1.9108350197827136e-75 0.0
0.0 -1.4578760474581964e-76 0.0
0.0 1.0912218472594179e-77 0.0
0.0 -8.047650881518489e-79 0.0
0.0 5.9264142479172356e-80 0.0
0.0 -4.544006797167642e-81 0.0
0.0 4.034349498250805e-82 0.0
0.0 -4.828443332090743e-83 0.0
0.0 7.971980052683333e-84 0.0
0.0 -1.5771725559393305e-84 0.0
0.0 3.311045632653611e-85 0.0
0.0 -7.01078872770052e-86 0.0
0.0 1.474728701195093e-86 0.0
0.0 -3.0720733061603086e-87 0.0
0.0 6.339020359850925e-88 0.0
0.0 -1.296905124076768e-88 0.0
0.0 2.6334603135320348e-89 0.0
0.0 -5.3119635470208035e-90 0.0
0.0 1.0651349389787394e-90 0.0
0.0 -2.1243730942329594e-91 0.0
0.0 4.216421341946629e-92 0.0
0.0 -8.331423880616885e-93 0.0
0.0 1.6394698387476912e-93 0.0
0.0 -3.2138181103913787e-94 0.0
0.0 6.277398157541083e-95 0.0
0.0 -1.221999563896354e-95 0.0
0.0 2.37124382245099e-96 0.0
0.0 -4.5873978488057066e-97 0.0
0.0 8.849220771893561e-98 0.0
0.0 -1.702350510975322e-98 0.0
0.0 3.2662525813748316e-99 0.0
0.0 -6.251069485148092e-100 0.0
0.0 1.193454264990168e-100 0.0
0.0 -2.2732330486028454e-101 0.0
0.0 4.320220006286963e-102 0.0
0.0 -8.192680190524969e-103 0.0
0.0 1.5503747491417333e-103 0.0
0.0 -2.9279808986954124e-104 0.0
0.0 5.518856997360011e-105 0.0
0.0 -1.0382587869578274e-105 0.0
0.0 1.9496036332734303e-106 0.0
0.0 -3.650232883046476e-107 0.0
0.0 6.600513160966119e-108 0.0
0.0 6.597327915768093e-108 0.0
0.0 -3.648914012062002e-107 0.0
0.0 1.9491472497010223e-106 0.0
0.0 -1.0381406351565604e-105 0.0
0.0 5.518824333379616e-105 0.0
0.0 -2.928231616773416e-104 0.0
0.0 1.5506199473304124e-103 0.0
0.0 -8.194402406993048e-103 0.0
0.0 4.321263686584976e-102 0.0
0.0 -2.2738085360141025e-101 0.0
0.0 1.1937488657978303e-100 0.0
0.0 -6.252478217254092e-100 0.0
0.0 3.2668796888130376e-99 0.0
0.0 -1.7026065688600854e-98 0.0
0.0 8.85014435604259e-98 0.0
0.0 -4.587661487665876e-97 0.0
0.0 2.3712745428910717e-96 0.0
0.0 -1.2219671702878013e-95 0.0
0.0 6.27702789445939e-95 0.0
0.0 -3.2135501735864494e-94 0.0
0.0 1.6393067574782055e-93 0.0
0.0 -8.330524016743667e-93 0.0
0.0 4.2159550500491295e-92 0.0
0.0 -2.1241401379060883e-91 0.0
0.0 1.0650194519372527e-90 0.0
0.0 -5.311374974769687e-90 0.0
0.0 2.633140639152553e-89 0.0
0.0 -1.2967163718680812e-88 0.0
0.0 6.337818786480047e-88 0.0
0.0 -3.0712712968820855e-87 0.0
0.0 1.4741835017403223e-86 0.0
0.0 -7.007089525065991e-86 0.0
0.0 3.308567702488137e-85 0.0
0.0 -1.5755415604845024e-84 0.0
0.0 7.961445063971794e-84 0.0
0.0 -4.821763640286208e-83 0.0
0.0 4.030188685115964e-82 0.0
0.0 -4.541458543071003e-81 0.0
0.0 5.924879139147168e-80 0.0
0.0 -8.046741342083975e-79 0.0
0.0 1.0911688863195006e-77 0.0
0.0 -1.4578457870706177e-76 0.0
0.0 1.9108180948998212e-75 0.0
0.0 -2.452519565839013e-74 0.0
0.0 3.0781857775340854e-73 0.0
0.0 -3.77256242372829e-72 0.0
0.0 4.507118168294298e-71 0.0
0.0 -5.2383627145818e-70 0.0
0.0 5.908071515025575e-69 0.0
0.0 -6.446249126098949e-68 0.0
0.0 6.77745351810446e-67 0.0
0.0 -6.83059655457861e-66 0.0
0.0 6.551528286328413e-65 0.0
0.0 -5.91669656341931e-64 0.0
0.0 4.94516232124342e-63 0.0
0.0 -3.7055729323733945e-62 0.0
0.0 2.3147349177832634e-61 0.0
0.0 -9.255042086854339e-61 0.0
0.0 -2.9607484679008354e-60 0.0
0.0 1.20138158132607e-58 0.0
0.0 -1.6913904660529898e-57 0.0
0.0 1.7419958323951625e-56 0.0
0.0 -1.414017154427416e-55 0.0
0.0 8.422612124972218e-55 0.0
0.0 -2.0363939445392632e-54 0.0
0.0 -3.2862467552792075e-53 0.0
0.0 6.316310988023074e-52 0.0
0.0 -6.649369669510673e-51 0.0
0.0 4.76185523241094e-50 0.0
0.0 -1.770090572166409e-49 0.0
0.0 -1.0259725317036276e-48 0.0
0.0 2.6389899109853093e-47 0.0
0.0 -2.7297863648180577e-46 0.0
0.0 1.646208501357811e-45 0.0
0.0 -1.628068372387356e-45 0.0
0.0 -9.39765499077243e-44 0.0
0.0 1.241541668526273e-42 0.0
0.0 -8.18420138866985e-42 0.0
0.0 1.0081636237819997e-41 0.0
0.0 4.336858602745731e-40 0.0
0.0 -5.3790717010367506e-39 0.0
0.0 2.846011499702785e-38 0.0
0.0 5.63176986096902e-38 0.0
0.0 -2.3837754929858497e-36 0.0
0.0 1.9392743238867193e-35 0.0
0.0 -3.1170028737535297e-35 0.0
0.0 -9.214046572256688e-34 0.0
0.0 9.878587821574171e-33 0.0
0.0 -2.6377133428449053e-32 0.0
0.0 -3.7985263008941213e-31 0.0
0.0 4.447500208376606e-30 0.0
0.0 -1.0179827576607388e-29 0.0
0.0 -1.8499717288821465e-28 0.0
0.0 1.7823195271051966e-27 0.0
0.0 -6.401960989113132e-28 0.0
0.0 -9.414554919977145e-26 0.0
0.0 5.39858941301629e-25 0.0
0.0 2.3227911456622073e-24 0.0
0.0 -3.880499373052412e-23 0.0
0.0 4.1538836530105394e-23 0.0
0.0 1.8019846211211145e-21 0.0
0.0 -7.980685983395463e-21 0.0
0.0 -6.466774261575576e-20 0.0
0.0 5.342211023402914e-19 0.0
0.0 1.970683082009155e-18 0.0
0.0 -2.7182741277685454e-17 0.0
0.0 -6.050520234794733e-17 0.0
0.0 1.207814026080595e-15 0.0
0.0 2.5459440701521324e-15 0.0
0.0 -4.830781798928245e-14 0.0
0.0 -1.510014342384719e-13 0.0
0.0 1.6340084941186042e-12 0.0
0.0 9.085210990090816e-12 0.0
0.0 -3.501122568316863e-11 0.0
0.0 -4.2974543641428154e-10 0.0
0.0 -4.6048549006288537e-10 0.0
0.0 1.1792969193538482e-08 0.0
0.0 7.319610588289322e-08 0.0
0.0 6.712227108800226e-08 0.0
0.0 -1.6086559967664443e-06 0.0
0.0 -1.2887694026386417e-05 0.0
0.0 -5.8390769682509495e-05 0.0
0.0 -0.00018925829285801373 0.0
0.0 -0.0004701551811792901 0.0
0.0 -0.0009202200177304112 0.0
0.0 -0.0014371367531289282 0.0
0.0 -0.0018115204561315993 0.0
0.0 -0.0018987283834034762 0.0
0.0 -0.0017920123101931227 0.0
0.0 -0.0017274234105215036 0.0
0.0 -0.0017843738567077144 0.0
0.0 -0.0018263094667084747 0.0
0.0 -0.0017839867808861693 0.0
0.0 -0.0017637285742637383 0.0
0.0 -0.0018003319354202387 0.0
0.0 -0.0018005991684064133 0.0
0.0 -0.0017729021222162896 0.0
0.0 -0.0017883649605735172 0.0
0.0 -0.0018000872120402943 0.0
0.0 -0.001779513111686245 0.0
0.0 -0.0017860618202907902 0.0
0.0 -0.0017972861018165393 0.0
0.0 -0.0017818651414595516 0.0
0.0 -0.0017872139761052695 0.0
0.0 -0.0017947426350869752 0.0
0.0 -0.0017823307821409336 0.0
0.0 -0.0017895543778350942 0.0
0.0 -0.0017919157126804447 0.0
0.0 -0.0017829179858456228 0.0
0.0 -0.0017918688933562918 0.0
0.0 -0.0017884142970577973 0.0
0.0 -0.001785074039942381 0.0
0.0 -0.0017925431545250334 0.0
0.0 -0.0017853152649924492 0.0
0.0 -0.0017887758475491628 0.0
0.0 -0.0017902698847634556 0.0
0.0 -0.001785020558798831 0.0
0.0 -0.001791440330235216 0.0
0.0 -0.0017864966584714575 0.0
0.0 -0.0017882773163526691 0.0
0.0 -0.0017899718587081781 0.0
0.0 -0.001785695998619742 0.0
0.0 -0.0017909810953499463 0.0
0.0 -0.0017863250623568264 0.0
0.0 -0.0017891296046496316 0.0
0.0 -0.0017887359382404116 0.0
0.0 -0.0017868327182218417 0.0
0.0 -0.0017904068046491052 0.0
0.0 -0.001786056958897287 0.0
0.0 -0.0017902612752634048 0.0
0.0 -0.0017869622313235213 0.0
0.0 -0.0017888660284017198 0.0
0.0 -0.0017885478088586868 0.0
0.0 -0.001787358627581661 0.0
0.0 -0.0017897768259144626 0.0
0.0 -0.0017865258630407783 0.0
0.0 -0.0017901738814372927 0.0
0.0 -0.0017865407937145636 0.0
0.0 -0.0017898137192359398 0.0
0.0 -0.0017871566041875809 0.0
0.0 -0.001789037574760579 0.0
0.0 -0.0017880045989758398 0.0
0.0 -0.0017881916139220503 0.0
0.0 -0.001788792838341471 0.0
0.0 -0.0017874982210413343 0.0
0.0 -0.0017893710549494461 0.0
0.0 -0.0017870416890237999 0.0
0.0 -0.0017897098227583677 0.0
0.0 -0.0017868096475521767 0.0
0.0 -0.0017898504100844744 0.0
0.0 -0.0017867433364173871 0.0
0.0 -0.0017898598077464997 0.0
0.0 -0.0017867744862970784 0.0
0.0 -0.0017898027677423205 0.0
0.0 -0.0017868448305765712 0.0
0.0 -0.0017897295320797918 0.0
0.0 -0.0017869126614333444 0.0
0.0 -0.0017896734360465293 0.0
0.0 -0.001786952481590453 0.0
0.0 -0.0017869524815904653 0.0
0.0 -0.0017896734360465041 0.0
0.0 -0.0017869126614333715 0.0
0.0 -0.0017897295320797766 0.0
0.0 -0.0017868448305765935 0.0
0.0 -0.0017898027677423196 0.0
0.0 -0.001786774486297088 0.0
0.0 -0.0017898598077465166 0.0
0.0 -0.0017867433364173986 0.0
0.0 -0.0017898504100844598 0.0
0.0 -0.0017868096475521927 0.0
0.0 -0.0017897098227583443 0.0
0.0 -0.0017870416890238337 0.0
0.0 -0.0017893710549494195 0.0
0.0 -0.0017874982210413558 0.0
0.0 -0.0017887928383414397 0.0
0.0 -0.001788191613922075 0.0
0.0 -0.001788004598975796 0.0
0.0 -0.0017890375747605743 0.0
0.0 -0.0017871566041875644 0.0
0.0 -0.0017898137192359728 0.0
0.0 -0.0017865407937145516 0.0
0.0 -0.0017901738814372896 0.0
0.0 -0.0017865258630407953 0.0
0.0 -0.0017897768259144 0.0
0.0 -0.0017873586275817263 0.0
0.0 -0.0017885478088586098 0.0
0.0 -0.0017888660284018218 0.0
0.0 -0.001786962231323432 0.0
0.0 -0.0017902612752634368 0.0
0.0 -0.001786056958897289 0.0
0.0 -0.0017904068046490373 0.0
0.0 -0.001786832718221958 0.0
0.0 -0.0017887359382402408 0.0
0.0 -0.001789129604649804 0.0
0.0 -0.0017863250623567192 0.0
0.0 -0.001790981095349992 0.0
0.0 -0.0017856959986198209 0.0
0.0 -0.001789971858707978 0.0
0.0 -0.0017882773163529313 0.0
0.0 -0.0017864966584712181 0.0
0.0 -0.0017914403302353122 0.0
0.0 -0.0017850205587989518 0.0