# vtk DataFile Version 2.0
data_262
ASCII
DATASET UNSTRUCTURED_GRID
POINTS 804 float
0.0 0.0 0.0
0.1 0.0 0.0
0.1 20.0 0.0
0.0 20.0 0.0
0.0 0.0 -0.1
0.1 0.0 -0.1
0.1 20.0 -0.1
0.0 20.0 -0.1
0.1 0.09999999999992462 0.0
0.1 0.1999999999998517 0.0
0.1 0.2999999999997818 0.0
0.1 0.399999999999712 0.0
0.1 0.4999999999996377 0.0
0.1 0.5999999999995541 0.0
0.1 0.6999999999994495 0.0
0.1 0.7999999999993355 0.0
0.1 0.8999999999992101 0.0
0.1 0.999999999999102 0.0
0.1 1.099999999999006 0.0
0.1 1.199999999998936 0.0
0.1 1.299999999998867 0.0
0.1 1.399999999998797 0.0
0.1 1.499999999998727 0.0
0.1 1.599999999998657 0.0
0.1 1.699999999998587 0.0
0.1 1.799999999998517 0.0
0.1 1.899999999998447 0.0
0.1 1.999999999998378 0.0
0.1 2.099999999998308 0.0
0.1 2.199999999998238 0.0
0.1 2.299999999998168 0.0
0.1 2.399999999998067 0.0
0.1 2.499999999997942 0.0
0.1 2.599999999997706 0.0
0.1 2.699999999997444 0.0
0.1 2.799999999997153 0.0
0.1 2.899999999996861 0.0
0.1 2.999999999996569 0.0
0.1 3.099999999996277 0.0
0.1 3.199999999995984 0.0
0.1 3.299999999995693 0.0
0.1 3.399999999995401 0.0
0.1 3.499999999995108 0.0
0.1 3.599999999994816 0.0
0.1 3.699999999994525 0.0
0.1 3.799999999994232 0.0
0.1 3.89999999999394 0.0
0.1 3.999999999993648 0.0
0.1 4.099999999993356 0.0
0.1 4.199999999993064 0.0
0.1 4.299999999992772 0.0
0.1 4.399999999992479 0.0
0.1 4.499999999992188 0.0
0.1 4.599999999991895 0.0
0.1 4.699999999991603 0.0
0.1 4.799999999991311 0.0
0.1 4.899999999991019 0.0
0.1 4.999999999990727 0.0
0.1 5.099999999990436 0.0
0.1 5.199999999990144 0.0
0.1 5.299999999989851 0.0
0.1 5.399999999989559 0.0
0.1 5.499999999989267 0.0
0.1 5.599999999988975 0.0
0.1 5.699999999988683 0.0
0.1 5.799999999988391 0.0
0.1 5.899999999988099 0.0
0.1 5.999999999987806 0.0
0.1 6.099999999987515 0.0
0.1 6.199999999987222 0.0
0.1 6.299999999986929 0.0
0.1 6.399999999986638 0.0
0.1 6.499999999986345 0.0
0.1 6.599999999986054 0.0
0.1 6.699999999985762 0.0
0.1 6.79999999998547 0.0
0.1 6.899999999985177 0.0
0.1 6.999999999984885 0.0
0.1 7.099999999984593 0.0
0.1 7.199999999984302 0.0
0.1 7.299999999984009 0.0
0.1 7.399999999983717 0.0
0.1 7.499999999983426 0.0
0.1 7.599999999983132 0.0
0.1 7.699999999982841 0.0
0.1 7.799999999982549 0.0
0.1 7.899999999982256 0.0
0.1 7.999999999982034 0.0
0.1 8.099999999981964 0.0
0.1 8.199999999982062 0.0
0.1 8.299999999982214 0.0
0.1 8.399999999982366 0.0
0.1 8.499999999982517 0.0
0.1 8.59999999998267 0.0
0.1 8.699999999982822 0.0
0.1 8.799999999982973 0.0
0.1 8.899999999983125 0.0
0.1 8.999999999983277 0.0
0.1 9.09999999998343 0.0
0.1 9.19999999998358 0.0
0.1 9.299999999983733 0.0
0.1 9.399999999983885 0.0
0.1 9.499999999984038 0.0
0.1 9.599999999984188 0.0
0.1 9.69999999998434 0.0
0.1 9.799999999984493 0.0
0.1 9.899999999984646 0.0
0.1 9.999999999984798 0.0
0.1 10.09999999998495 0.0
0.1 10.1999999999851 0.0
0.1 10.29999999998525 0.0
0.1 10.39999999998541 0.0
0.1 10.49999999998556 0.0
0.1 10.59999999998571 0.0
0.1 10.69999999998586 0.0
0.1 10.79999999998601 0.0
0.1 10.89999999998616 0.0
0.1 10.99999999998632 0.0
0.1 11.09999999998647 0.0
0.1 11.19999999998662 0.0
0.1 11.29999999998677 0.0
0.1 11.39999999998693 0.0
0.1 11.49999999998708 0.0
0.1 11.59999999998723 0.0
0.1 11.69999999998738 0.0
0.1 11.79999999998754 0.0
0.1 11.89999999998769 0.0
0.1 11.99999999998784 0.0
0.1 12.09999999998799 0.0
0.1 12.19999999998814 0.0
0.1 12.2999999999883 0.0
0.1 12.39999999998845 0.0
0.1 12.4999999999886 0.0
0.1 12.59999999998875 0.0
0.1 12.6999999999889 0.0
0.1 12.79999999998905 0.0
0.1 12.89999999998921 0.0
0.1 12.99999999998936 0.0
0.1 13.09999999998951 0.0
0.1 13.19999999998966 0.0
0.1 13.29999999998982 0.0
0.1 13.39999999998997 0.0
0.1 13.49999999999012 0.0
0.1 13.59999999999027 0.0
0.1 13.69999999999042 0.0
0.1 13.79999999999057 0.0
0.1 13.89999999999073 0.0
0.1 13.99999999999088 0.0
0.1 14.09999999999103 0.0
0.1 14.19999999999118 0.0
0.1 14.29999999999134 0.0
0.1 14.39999999999149 0.0
0.1 14.49999999999164 0.0
0.1 14.59999999999179 0.0
0.1 14.69999999999194 0.0
0.1 14.7999999999921 0.0
0.1 14.89999999999225 0.0
0.1 14.9999999999924 0.0
0.1 15.09999999999255 0.0
0.1 15.1999999999927 0.0
0.1 15.29999999999285 0.0
0.1 15.39999999999301 0.0
0.1 15.49999999999316 0.0
0.1 15.59999999999331 0.0
0.1 15.69999999999346 0.0
0.1 15.79999999999362 0.0
0.1 15.89999999999377 0.0
0.1 15.99999999999392 0.0
0.1 16.09999999999407 0.0
0.1 16.19999999999422 0.0
0.1 16.29999999999437 0.0
0.1 16.39999999999453 0.0
0.1 16.49999999999468 0.0
0.1 16.59999999999483 0.0
0.1 16.69999999999498 0.0
0.1 16.79999999999514 0.0
0.1 16.89999999999528 0.0
0.1 16.99999999999544 0.0
0.1 17.09999999999559 0.0
0.1 17.19999999999574 0.0
0.1 17.29999999999589 0.0
0.1 17.39999999999605 0.0
0.1 17.4999999999962 0.0
0.1 17.59999999999635 0.0
0.1 17.6999999999965 0.0
0.1 17.79999999999665 0.0
0.1 17.89999999999681 0.0
0.1 17.99999999999696 0.0
0.1 18.09999999999711 0.0
0.1 18.19999999999726 0.0
0.1 18.29999999999742 0.0
0.1 18.39999999999757 0.0
0.1 18.49999999999772 0.0
0.1 18.59999999999787 0.0
0.1 18.69999999999802 0.0
0.1 18.79999999999818 0.0
0.1 18.89999999999833 0.0
0.1 18.99999999999848 0.0
0.1 19.09999999999863 0.0
0.1 19.19999999999878 0.0
0.1 19.29999999999894 0.0
0.1 19.39999999999909 0.0
0.1 19.49999999999924 0.0
0.1 19.59999999999939 0.0
0.1 19.69999999999955 0.0
0.1 19.7999999999997 0.0
0.1 19.89999999999985 0.0
0.0 19.9 0.0
0.0 19.8 0.0
0.0 19.7 0.0
0.0 19.6 0.0
0.0 19.5 0.0
0.0 19.4 0.0
0.0 19.3 0.0
0.0 19.2 0.0
0.0 19.1 0.0
0.0 19.0 0.0
0.0 18.9 0.0
0.0 18.8 0.0
0.0 18.7 0.0
0.0 18.6 0.0
0.0 18.5 0.0
0.0 18.4 0.0
0.0 18.3 0.0
0.0 18.2 0.0
0.0 18.1 0.0
0.0 18.0 0.0
0.0 17.9 0.0
0.0 17.8 0.0
0.0 17.7 0.0
0.0 17.6 0.0
0.0 17.5 0.0
0.0 17.4 0.0
0.0 17.3 0.0
0.0 17.2 0.0
0.0 17.09999999999999 0.0
0.0 17.0 0.0
0.0 16.9 0.0
0.0 16.8 0.0
0.0 16.7 0.0
0.0 16.59999999999999 0.0
0.0 16.49999999999999 0.0
0.0 16.4 0.0
0.0 16.29999999999999 0.0
0.0 16.2 0.0
0.0 16.09999999999999 0.0
0.0 15.99999999999999 0.0
0.0 15.89999999999999 0.0
0.0 15.79999999999999 0.0
0.0 15.69999999999999 0.0
0.0 15.59999999999999 0.0
0.0 15.49999999999999 0.0
0.0 15.39999999999999 0.0
0.0 15.29999999999999 0.0
0.0 15.19999999999999 0.0
0.0 15.09999999999999 0.0
0.0 14.99999999999999 0.0
0.0 14.89999999999999 0.0
0.0 14.79999999999999 0.0
0.0 14.69999999999999 0.0
0.0 14.59999999999999 0.0
0.0 14.49999999999999 0.0
0.0 14.39999999999999 0.0
0.0 14.29999999999999 0.0
0.0 14.19999999999999 0.0
0.0 14.09999999999999 0.0
0.0 13.99999999999999 0.0
0.0 13.89999999999999 0.0
0.0 13.79999999999999 0.0
0.0 13.69999999999999 0.0
0.0 13.59999999999999 0.0
0.0 13.49999999999999 0.0
0.0 13.39999999999999 0.0
0.0 13.29999999999999 0.0
0.0 13.19999999999999 0.0
0.0 13.09999999999999 0.0
0.0 12.99999999999999 0.0
0.0 12.89999999999999 0.0
0.0 12.79999999999999 0.0
0.0 12.69999999999999 0.0
0.0 12.59999999999999 0.0
0.0 12.49999999999999 0.0
0.0 12.39999999999999 0.0
0.0 12.29999999999999 0.0
0.0 12.19999999999999 0.0
0.0 12.09999999999999 0.0
0.0 11.99999999999999 0.0
0.0 11.89999999999999 0.0
0.0 11.79999999999999 0.0
0.0 11.69999999999999 0.0
0.0 11.59999999999999 0.0
0.0 11.49999999999999 0.0
0.0 11.39999999999999 0.0
0.0 11.29999999999999 0.0
0.0 11.19999999999999 0.0
0.0 11.09999999999999 0.0
0.0 10.99999999999999 0.0
0.0 10.89999999999999 0.0
0.0 10.79999999999999 0.0
0.0 10.69999999999999 0.0
0.0 10.59999999999999 0.0
0.0 10.49999999999999 0.0
0.0 10.39999999999999 0.0
0.0 10.29999999999999 0.0
0.0 10.19999999999999 0.0
0.0 10.09999999999999 0.0
0.0 9.999999999999993 0.0
0.0 9.899999999999993 0.0
0.0 9.799999999999994 0.0
0.0 9.699999999999992 0.0
0.0 9.599999999999993 0.0
0.0 9.499999999999993 0.0
0.0 9.399999999999993 0.0
0.0 9.299999999999995 0.0
0.0 9.199999999999996 0.0
0.0 9.099999999999994 0.0
0.0 8.999999999999995 0.0
0.0 8.899999999999995 0.0
0.0 8.799999999999994 0.0
0.0 8.699999999999994 0.0
0.0 8.599999999999994 0.0
0.0 8.499999999999995 0.0
0.0 8.399999999999995 0.0
0.0 8.299999999999994 0.0
0.0 8.199999999999994 0.0
0.0 8.099999999999994 0.0
0.0 7.999999999999993 0.0
0.0 7.899999999999995 0.0
0.0 7.799999999999995 0.0
0.0 7.699999999999996 0.0
0.0 7.599999999999996 0.0
0.0 7.499999999999996 0.0
0.0 7.399999999999995 0.0
0.0 7.299999999999995 0.0
0.0 7.199999999999996 0.0
0.0 7.099999999999994 0.0
0.0 6.999999999999995 0.0
0.0 6.899999999999995 0.0
0.0 6.799999999999995 0.0
0.0 6.699999999999996 0.0
0.0 6.599999999999994 0.0
0.0 6.499999999999995 0.0
0.0 6.399999999999997 0.0
0.0 6.299999999999997 0.0
0.0 6.199999999999996 0.0
0.0 6.099999999999996 0.0
0.0 5.999999999999996 0.0
0.0 5.899999999999997 0.0
0.0 5.799999999999997 0.0
0.0 5.699999999999996 0.0
0.0 5.599999999999996 0.0
0.0 5.499999999999996 0.0
0.0 5.399999999999995 0.0
0.0 5.299999999999995 0.0
0.0 5.199999999999996 0.0
0.0 5.099999999999996 0.0
0.0 4.999999999999998 0.0
0.0 4.899999999999999 0.0
0.0 4.799999999999997 0.0
0.0 4.699999999999998 0.0
0.0 4.599999999999998 0.0
0.0 4.499999999999996 0.0
0.0 4.399999999999997 0.0
0.0 4.299999999999997 0.0
0.0 4.199999999999998 0.0
0.0 4.099999999999998 0.0
0.0 3.999999999999996 0.0
0.0 3.899999999999999 0.0
0.0 3.799999999999997 0.0
0.0 3.699999999999996 0.0
0.0 3.599999999999998 0.0
0.0 3.5 0.0
0.0 3.399999999999999 0.0
0.0 3.299999999999997 0.0
0.0 3.199999999999999 0.0
0.0 3.099999999999998 0.0
0.0 3.0 0.0
0.0 2.899999999999999 0.0
0.0 2.799999999999997 0.0
0.0 2.699999999999999 0.0
0.0 2.599999999999998 0.0
0.0 2.499999999999996 0.0
0.0 2.399999999999999 0.0
0.0 2.299999999999997 0.0
0.0 2.199999999999999 0.0
0.0 2.100000000000001 0.0
0.0 2.0 0.0
0.0 1.899999999999999 0.0
0.0 1.800000000000001 0.0
0.0 1.699999999999999 0.0
0.0 1.599999999999998 0.0
0.0 1.5 0.0
0.0 1.399999999999999 0.0
0.0 1.299999999999997 0.0
0.0 1.199999999999999 0.0
0.0 1.099999999999998 0.0
0.0 1.0 0.0
0.0 0.8999999999999986 0.0
0.0 0.8000000000000007 0.0
0.0 0.6999999999999993 0.0
0.0 0.6000000000000014 0.0
0.0 0.5 0.0
0.0 0.3999999999999986 0.0
0.0 0.3000000000000007 0.0
0.0 0.1999999999999993 0.0
[...]
POINT_DATA 804
VECTORS displacement double
0.0 0.0 0.0
0.0 0.0 0.0
0.0 -0.0017874556271666986 0.0
0.0 -0.0017874556271666863 0.0
0.0 0.0 0.0
0.0 0.0 0.0
0.0 -0.0017874556271666856 0.0
0.0 -0.0017874556271667032 0.0
0.0 -1.4537874579122929e-05 0.0
0.0 -4.373714426074319e-05 0.0
0.0 -0.00010692346292403327 0.0
0.0 -0.00022896800118085874 0.0
0.0 -0.0004336358747744643 0.0
0.0 -0.0007283085456605253 0.0
0.0 -0.001086315262253039 0.0
0.0 -0.0014417600193102633 0.0
0.0 -0.001711466097916928 0.0
0.0 -0.0018407175144099493 0.0
0.0 -0.0018421177321902168 0.0
0.0 -0.0017889477036315813 0.0
0.0 -0.0017583569805030698 0.0
0.0 -0.0017728048367869349 0.0
0.0 -0.0017985988245214992 0.0
0.0 -0.0018004205544014857 0.0
0.0 -0.0017841810031401957 0.0
0.0 -0.001778111198338791 0.0
0.0 -0.0017878974378566696 0.0
0.0 -0.0017939478336871447 0.0
0.0 -0.0017876490206857202 0.0
0.0 -0.0017827766048654047 0.0
0.0 -0.0017873738228811142 0.0
0.0 -0.0017908988477288623 0.0
0.0 -0.001787105541372484 0.0
0.0 -0.0017848669845038534 0.0
0.0 -0.0017882116624398003 0.0
0.0 -0.0017892529851810152 0.0
0.0 -0.0017863270208096163 0.0
0.0 -0.0017863659602528603 0.0
0.0 -0.0017887148283352806 0.0
0.0 -0.0017878005088795416 0.0
0.0 -0.0017862552533708528 0.0
0.0 -0.0017877012180149954 0.0
0.0 -0.0017882830639741848 0.0
0.0 -0.0017867777193188749 0.0
0.0 -0.0017871173080190323 0.0
0.0 -0.001788187110660315 0.0
0.0 -0.0017872453657301463 0.0
0.0 -0.001786940972623847 0.0
0.0 -0.0017879486544289307 0.0
0.0 -0.0017875047309630712 0.0
0.0 -0.00178696089350107 0.0
0.0 -0.0017877539949625086 0.0
0.0 -0.0017876064448347757 0.0
0.0 -0.0017870360294412126 0.0
0.0 -0.0017876383550209378 0.0
0.0 -0.0017876224635549071 0.0
0.0 -0.0017871080609744234 0.0
0.0 -0.0017875857559387861 0.0
0.0 -0.0017875981429176931 0.0
0.0 -0.0017871639227880819 0.0
0.0 -0.001787573074288979 0.0
0.0 -0.0017875545847022521 0.0
0.0 -0.0017872086938778222 0.0
0.0 -0.0017875811995823648 0.0
0.0 -0.0017875000869833264 0.0
0.0 -0.0017872526193878134 0.0
0.0 -0.0017875944758471954 0.0
0.0 -0.0017874395233897806 0.0
0.0 -0.0017873051171352903 0.0
0.0 -0.0017875985218929332 0.0
0.0 -0.0017873804813746826 0.0
0.0 -0.001787370487601719 0.0
0.0 -0.001787580539509977 0.0
0.0 -0.0017873359836475802 0.0
0.0 -0.0017874436946009728 0.0
0.0 -0.001787533549460838 0.0
0.0 -0.0017873223578075588 0.0
0.0 -0.0017875081106464232 0.0
0.0 -0.0017874633353421642 0.0
0.0 -0.001787350872781376 0.0
0.0 -0.0017875396315058668 0.0
0.0 -0.0017873928992081188 0.0
0.0 -0.0017874154234630306 0.0
0.0 -0.0017875204155954742 0.0
0.0 -0.0017873561981689393 0.0
0.0 -0.0017874854447223704 0.0
0.0 -0.0017874577819995117 0.0
0.0 -0.001787376739224009 0.0
0.0 -0.0017875171520409577 0.0
0.0 -0.0017873920559191025 0.0
0.0 -0.0017874414371611394 0.0
0.0 -0.0017874863296531117 0.0
0.0 -0.0017873746759151676 0.0
0.0 -0.0017874972240347006 0.0
0.0 -0.0017874197189275687 0.0
0.0 -0.0017874209528460111 0.0
0.0 -0.0017874916323060278 0.0
0.0 -0.001787383412380969 0.0
0.0 -0.0017874821880130086 0.0
0.0 -0.001787432126469761 0.0
0.0 -0.0017874167029391047 0.0
0.0 -0.0017874877235724777 0.0
0.0 -0.0017873911981300607 0.0
0.0 -0.0017874761585399987 0.0
0.0 -0.0017874327021567614 0.0
0.0 -0.0017874217434909123 0.0
0.0 -0.0017874802674745847 0.0
0.0 -0.001787396516720778 0.0
0.0 -0.0017874766087115192 0.0
0.0 -0.0017874256601405393 0.0
0.0 -0.0017874330958427488 0.0
0.0 -0.0017874691221071556 0.0
0.0 -0.001787402692143871 0.0
0.0 -0.0017874785867866391 0.0
0.0 -0.0017874152997073357 0.0
0.0 -0.0017874490739625169 0.0
0.0 -0.0017874524618422196 0.0
0.0 -0.0017874146749033823 0.0
0.0 -0.00178747543143055 0.0
0.0 -0.001787408087355645 0.0
0.0 -0.001787465227204467 0.0
0.0 -0.0017874314296759375 0.0
0.0 -0.0017874351499037762 0.0
0.0 -0.0017874609339567963 0.0
0.0 -0.0017874127132445734 0.0
0.0 -0.0017874719861597796 0.0
0.0 -0.0017874145574215603 0.0
0.0 -0.001787458552074833 0.0
0.0 -0.0017874360954174284 0.0
0.0 -0.0017874336580896285 0.0
0.0 -0.001787459435896577 0.0
0.0 -0.001787416036159352 0.0
0.0 -0.0017874686210289275 0.0
0.0 -0.0017874162859257854 0.0
0.0 -0.0017874596528578313 0.0
0.0 -0.0017874319039835284 0.0
0.0 -0.0017874403329062652 0.0
0.0 -0.001787451706124158 0.0
0.0 -0.0017874230404324905 0.0
0.0 -0.0017874641753254509 0.0
0.0 -0.0017874168079649888 0.0
0.0 -0.0017874637738700102 0.0
0.0 -0.0017874233275372953 0.0
0.0 -0.001787452408808424 0.0
0.0 -0.0017874377985026752 0.0
0.0 -0.0017874367879596952 0.0
0.0 -0.0017874526905149873 0.0
0.0 -0.0017874242415708225 0.0
0.0 -0.0017874617138330326 0.0
0.0 -0.0017874194331466457 0.0
0.0 -0.001787462136741971 0.0
0.0 -0.0017874231227955216 0.0
0.0 -0.0017874549885222035 0.0
0.0 -0.0017874328350751564 0.0
0.0 -0.0017874437536094837 0.0
0.0 -0.0017874445438658623 0.0
0.0 -0.001787432556239236 0.0
0.0 -0.0017874544065235253 0.0
0.0 -0.0017874246666801752 0.0
0.0 -0.0017874599162682023 0.0
0.0 -0.0017874217353765405 0.0
0.0 -0.0017874602841720284 0.0
0.0 -0.0017874237556339079 0.0
0.0 -0.0017874561951331765 0.0
0.0 -0.0017874295133590253 0.0
0.0 -0.0017874492301952656 0.0
0.0 -0.001787437220578231 0.0
0.0 -0.001787441238331851 0.0
0.0 -0.0017874450910700867 0.0
0.0 -0.0017874338459598319 0.0
0.0 -0.001787451727140133 0.0
0.0 -0.0017874281802455372 0.0
0.0 -0.001787456289643581 0.0
0.0 -0.001787424795207678 0.0
0.0 -0.0017874584908723849 0.0
0.0 -0.0017874237424358288 0.0
0.0 -0.0017874584780508652 0.0
0.0 -0.0017874247165623627 0.0
0.0 -0.0017874566737454737 0.0
0.0 -0.0017874272166535214 0.0
0.0 -0.0017874536222355355 0.0
0.0 -0.0017874306852289613 0.0
0.0 -0.0017874498694620098 0.0
0.0 -0.0017874346071333385 0.0
0.0 -0.0017874458858006816 0.0
0.0 -0.0017874385659866216 0.0
0.0 -0.001787442028578355 0.0
0.0 -0.0017874422651040463 0.0
0.0 -0.0017874385350146445 0.0
0.0 -0.0017874455234619185 0.0
0.0 -0.0017874355346857807 0.0
0.0 -0.00178744825723853 0.0
0.0 -0.0017874330718472015 0.0
0.0 -0.001787450455422372 0.0
0.0 -0.0017874311304452114 0.0
0.0 -0.0017874521552992768 0.0
0.0 -0.0017874296573136173 0.0
0.0 -0.0017874534211255028 0.0
0.0 -0.0017874285812997253 0.0
0.0 -0.0017874543273538265 0.0
0.0 -0.0017874278276748764 0.0
0.0 -0.0017874549464938134 0.0
0.0 -0.0017874273281681468 0.0
0.0 -0.0017874553409742999 0.0
0.0 -0.0017874270274402483 0.0
0.0 -0.0017874555580957223 0.0
0.0 -0.0017874268869338974 0.0
0.0 -0.0017874268869338863 0.0
0.0 -0.0017874555580957277 0.0
0.0 -0.0017874270274402476 0.0
0.0 -0.0017874553409743083 0.0
0.0 -0.0017874273281681468 0.0
0.0 -0.0017874549464938169 0.0
0.0 -0.0017874278276748714 0.0
0.0 -0.0017874543273538256 0.0
0.0 -0.0017874285812997366 0.0
0.0 -0.0017874534211255104 0.0
0.0 -0.0017874296573136077 0.0
0.0 -0.0017874521552992879 0.0
0.0 -0.0017874311304452086 0.0
0.0 -0.001787450455422357 0.0
0.0 -0.0017874330718472056 0.0
0.0 -0.0017874482572385313 0.0
0.0 -0.0017874355346857787 0.0
0.0 -0.0017874455234619072 0.0
0.0 -0.001787438535014663 0.0
0.0 -0.0017874422651040303 0.0
0.0 -0.0017874420285783619 0.0
0.0 -0.0017874385659866446 0.0
0.0 -0.0017874458858006693 0.0
0.0 -0.0017874346071333315 0.0
0.0 -0.0017874498694619965 0.0
0.0 -0.0017874306852289801 0.0
0.0 -0.0017874536222355294 0.0
0.0 -0.0017874272166535203 0.0
0.0 -0.0017874566737454763 0.0
0.0 -0.0017874247165623714 0.0
0.0 -0.0017874584780508604 0.0
0.0 -0.0017874237424358441 0.0
0.0 -0.0017874584908723894 0.0
0.0 -0.0017874247952076542 0.0
0.0 -0.0017874562896435732 0.0
0.0 -0.0017874281802455305 0.0
0.0 -0.0017874517271401359 0.0
0.0 -0.0017874338459598197 0.0
0.0 -0.0017874450910700997 0.0
0.0 -0.0017874412383318663 0.0
0.0 -0.0017874372205782252 0.0
0.0 -0.001787449230195268 0.0
0.0 -0.0017874295133590366 0.0
0.0 -0.0017874561951331653 0.0
0.0 -0.0017874237556339137 0.0
0.0 -0.0017874602841720265 0.0
0.0 -0.0017874217353765578 0.0
0.0 -0.001787459916268178 0.0
0.0 -0.001787424666680173 0.0
0.0 -0.0017874544065235377 0.0
0.0 -0.0017874325562392266 0.0
0.0 -0.0017874445438658684 0.0
0.0 -0.0017874437536094846 0.0
0.0 -0.0017874328350751562 0.0
0.0 -0.0017874549885221864 0.0
0.0 -0.0017874231227955214 0.0
0.0 -0.0017874621367419748 0.0
0.0 -0.0017874194331466379 0.0
0.0 -0.0017874617138330306 0.0
0.0 -0.0017874242415708258 0.0
0.0 -0.0017874526905149895 0.0
0.0 -0.0017874367879596852 0.0
0.0 -0.0017874377985026679 0.0
0.0 -0.0017874524088084228 0.0
0.0 -0.0017874233275372833 0.0
0.0 -0.0017874637738699932 0.0
0.0 -0.001787416807964987 0.0
0.0 -0.001787464175325456 0.0
0.0 -0.0017874230404324983 0.0
0.0 -0.0017874517061241665 0.0
0.0 -0.0017874403329062693 0.0
0.0 -0.001787431903983517 0.0
0.0 -0.0017874596528578458 0.0
0.0 -0.0017874162859257787 0.0
0.0 -0.0017874686210289207 0.0
0.0 -0.0017874160361593433 0.0
0.0 -0.0017874594358965796 0.0
0.0 -0.0017874336580896537 0.0
0.0 -0.0017874360954174412 0.0
0.0 -0.001787458552074846 0.0
0.0 -0.0017874145574215594 0.0
0.0 -0.001787471986159774 0.0
0.0 -0.0017874127132445814 0.0
0.0 -0.001787460933956796 0.0
0.0 -0.0017874351499037832 0.0
0.0 -0.0017874314296759373 0.0
0.0 -0.0017874652272044664 0.0
0.0 -0.00178740808735564 0.0
0.0 -0.0017874754314305347 0.0
0.0 -0.001787414674903377 0.0
0.0 -0.001787452461842206 0.0
0.0 -0.0017874490739625392 0.0
0.0 -0.00178741529970734 0.0
0.0 -0.0017874785867866357 0.0
0.0 -0.0017874026921438732 0.0
0.0 -0.001787469122107156 0.0
0.0 -0.0017874330958427464 0.0
0.0 -0.0017874256601405386 0.0
0.0 -0.0017874766087115277 0.0
0.0 -0.0017873965167207585 0.0
0.0 -0.0017874802674745771 0.0
0.0 -0.001787421743490941 0.0
0.0 -0.001787432702156761 0.0
0.0 -0.0017874761585400124 0.0
0.0 -0.0017873911981300635 0.0
0.0 -0.0017874877235724838 0.0
0.0 -0.0017874167029391166 0.0
0.0 -0.0017874321264697375 0.0
0.0 -0.0017874821880130096 0.0
0.0 -0.001787383412380962 0.0
0.0 -0.0017874916323060252 0.0
0.0 -0.0017874209528460161 0.0
0.0 -0.0017874197189275676 0.0
0.0 -0.0017874972240347208 0.0
0.0 -0.0017873746759151877 0.0
0.0 -0.001787486329653086 0.0
0.0 -0.0017874414371611615 0.0
0.0 -0.0017873920559190904 0.0
0.0 -0.0017875171520409755 0.0
0.0 -0.0017873767392240125 0.0
0.0 -0.0017874577819994768 0.0
0.0 -0.001787485444722392 0.0
0.0 -0.0017873561981689324 0.0
0.0 -0.0017875204155954627 0.0
0.0 -0.001787415423463053 0.0
0.0 -0.0017873928992080937 0.0
0.0 -0.0017875396315058573 0.0
0.0 -0.001787350872781395 0.0
0.0 -0.0017874633353421351 0.0
0.0 -0.0017875081106464468 0.0
0.0 -0.0017873223578075495 0.0
0.0 -0.0017875335494608087 0.0
0.0 -0.0017874436946010036 0.0
0.0 -0.0017873359836475494 0.0
0.0 -0.0017875805395099703 0.0
0.0 -0.0017873704876017434 0.0
0.0 -0.001787380481374659 0.0
0.0 -0.0017875985218929438 0.0
0.0 -0.0017873051171353024 0.0
0.0 -0.0017874395233897372 0.0
0.0 -0.0017875944758472286 0.0
0.0 -0.0017872526193878286 0.0
0.0 -0.0017875000869832685 0.0
0.0 -0.0017875811995823933 0.0
0.0 -0.001787208693877818 0.0
0.0 -0.0017875545847021977 0.0
0.0 -0.0017875730742890233 0.0
0.0 -0.001787163922788083 0.0
0.0 -0.0017875981429176457 0.0
0.0 -0.0017875857559388247 0.0
0.0 -0.0017871080609744275 0.0
0.0 -0.0017876224635548666 0.0
0.0 -0.0017876383550209723 0.0
0.0 -0.0017870360294412024 0.0
0.0 -0.0017876064448347053 0.0
0.0 -0.0017877539949625579 0.0
0.0 -0.001786960893501095 0.0
0.0 -0.0017875047309629927 0.0
0.0 -0.0017879486544289558 0.0
0.0 -0.0017869409726239149 0.0
0.0 -0.001787245365730073 0.0
0.0 -0.001788187110660314 0.0
0.0 -0.0017871173080191026 0.0
0.0 -0.0017867777193188315 0.0
0.0 -0.0017882830639741575 0.0
0.0 -0.001787701218015062 0.0
0.0 -0.0017862552533708408 0.0
0.0 -0.001787800508879448 0.0
0.0 -0.0017887148283353184 0.0
0.0 -0.0017863659602529191 0.0
0.0 -0.0017863270208095497 0.0
0.0 -0.0017892529851809562 0.0
0.0 -0.0017882116624398905 0.0
0.0 -0.001784866984503875 0.0
0.0 -0.0017871055413723996 0.0
0.0 -0.001790898847728842 0.0
0.0 -0.0017873738228812038 0.0
0.0 -0.0017827766048654113 0.0
0.0 -0.001787649020685576 0.0
0.0 -0.0017939478336871338 0.0
0.0 -0.001787897437856843 0.0
0.0 -0.0017781111983388414 0.0
0.0 -0.0017841810031399875 0.0
0.0 -0.0018004205544013309 0.0
0.0 -0.001798598824521714 0.0
0.0 -0.0017728048367872742 0.0
0.0 -0.0017583569805030006 0.0
0.0 -0.0017889477036310284 0.0
0.0 -0.0018421177321898312 0.0
0.0 -0.001840717514410483 0.0
0.0 -0.0017114660979185537 0.0
0.0 -0.0014417600193124438 0.0
0.0 -0.0010863152622550768 0.0
0.0 -0.0007283085456620132 0.0
0.0 -0.00043363587477536356 0.0
0.0 -0.0002289680011813081 0.0
0.0 -0.00010692346292421961 0.0
0.0 -4.373714426080162e-05 0.0
0.0 -1.4537874579135693e-05 0.0
0.0 -1.4537874579122924e-05 0.0
0.0 -4.373714426074319e-05 0.0
0.0 -0.00010692346292403323 0.0
0.0 -0.00022896800118085846 0.0
0.0 -0.00043363587477446454 0.0
0.0 -0.0007283085456605253 0.0
0.0 -0.0010863152622530411 0.0
0.0 -0.001441760019310263 0.0
0.0 -0.0017114660979169255 0.0
0.0 -0.00184071751440995 0.0
0.0 -0.00184211773219022 0.0
0.0 -0.0017889477036315722 0.0
0.0 -0.001758356980503071 0.0
0.0 -0.0017728048367869453 0.0
0.0 -0.0017985988245215012 0.0
0.0 -0.0018004205544014816 0.0
0.0 -0.0017841810031402033 0.0
0.0 -0.0017781111983387885 0.0
0.0 -0.0017878974378566712 0.0
0.0 -0.001793947833687156 0.0
0.0 -0.001787649020685722 0.0
0.0 -0.0017827766048654073 0.0
0.0 -0.0017873738228811047 0.0
0.0 -0.0017908988477288639 0.0
0.0 -0.0017871055413724933 0.0
0.0 -0.0017848669845038554 0.0
0.0 -0.0017882116624398153 0.0
0.0 -0.0017892529851810124 0.0
0.0 -0.0017863270208096202 0.0
0.0 -0.0017863659602528447 0.0
0.0 -0.0017887148283352815 0.0
0.0 -0.00178780050887953 0.0
0.0 -0.0017862552533708504 0.0
0.0 -0.0017877012180149987 0.0
0.0 -0.0017882830639741893 0.0
0.0 -0.0017867777193188805 0.0
0.0 -0.0017871173080190315 0.0
0.0 -0.0017881871106603118 0.0
0.0 -0.0017872453657301406 0.0
0.0 -0.0017869409726238635 0.0
0.0 -0.001787948654428929 0.0
0.0 -0.0017875047309630744 0.0
0.0 -0.0017869608935010856 0.0
0.0 -0.0017877539949625167 0.0
0.0 -0.0017876064448347634 0.0
0.0 -0.0017870360294412048 0.0
0.0 -0.001787638355020926 0.0
0.0 -0.001787622463554902 0.0
0.0 -0.001787108060974425 0.0
0.0 -0.00178758575593878 0.0
0.0 -0.0017875981429176847 0.0
0.0 -0.001787163922788082 0.0
0.0 -0.0017875730742889795 0.0
0.0 -0.0017875545847022482 0.0
0.0 -0.001787208693877821 0.0
0.0 -0.0017875811995823599 0.0
0.0 -0.001787500086983316 0.0
0.0 -0.0017872526193878125 0.0
0.0 -0.0017875944758472043 0.0
0.0 -0.0017874395233897656 0.0
0.0 -0.0017873051171352742 0.0
0.0 -0.001787598521892947 0.0
0.0 -0.0017873804813746878 0.0
0.0 -0.0017873704876017172 0.0
0.0 -0.0017875805395099799 0.0
0.0 -0.0017873359836475798 0.0
0.0 -0.0017874436946009725 0.0
0.0 -0.001787533549460826 0.0
0.0 -0.0017873223578075438 0.0
0.0 -0.0017875081106464208 0.0
0.0 -0.0017874633353421679 0.0
0.0 -0.0017873508727813767 0.0
0.0 -0.0017875396315058557 0.0
0.0 -0.0017873928992081121 0.0
0.0 -0.0017874154234630239 0.0
0.0 -0.0017875204155954822 0.0
0.0 -0.0017873561981689406 0.0
0.0 -0.0017874854447223764 0.0
0.0 -0.0017874577819995106 0.0
0.0 -0.0017873767392240004 0.0
0.0 -0.0017875171520409527 0.0
0.0 -0.001787392055919112 0.0
0.0 -0.0017874414371611398 0.0
0.0 -0.001787486329653109 0.0
0.0 -0.0017873746759151823 0.0
0.0 -0.0017874972240347034 0.0
0.0 -0.0017874197189275602 0.0
0.0 -0.0017874209528460044 0.0
0.0 -0.0017874916323060396 0.0
0.0 -0.00178738341238097 0.0
0.0 -0.001787482188012999 0.0
0.0 -0.0017874321264697542 0.0
0.0 -0.0017874167029390967 0.0
0.0 -0.0017874877235724788 0.0
0.0 -0.0017873911981300594 0.0
0.0 -0.0017874761585399955 0.0
0.0 -0.001787432702156757 0.0
0.0 -0.0017874217434909175 0.0
0.0 -0.0017874802674745815 0.0
0.0 -0.0017873965167207577 0.0
0.0 -0.001787476608711511 0.0
0.0 -0.0017874256601405445 0.0
0.0 -0.0017874330958427473 0.0
0.0 -0.0017874691221071517 0.0
0.0 -0.0017874026921438795 0.0
0.0 -0.001787478586786628 0.0
0.0 -0.0017874152997073268 0.0
0.0 -0.0017874490739625325 0.0
0.0 -0.0017874524618422152 0.0
0.0 -0.0017874146749033845 0.0
0.0 -0.001787475431430543 0.0
0.0 -0.0017874080873556374 0.0
0.0 -0.0017874652272044697 0.0
0.0 -0.0017874314296759519 0.0
0.0 -0.0017874351499037803 0.0
0.0 -0.001787460933956802 0.0
0.0 -0.0017874127132445753 0.0
0.0 -0.0017874719861597848 0.0
0.0 -0.0017874145574215553 0.0
0.0 -0.0017874585520748349 0.0
0.0 -0.0017874360954174338 0.0
0.0 -0.00178743365808964 0.0
0.0 -0.0017874594358965807 0.0
0.0 -0.001787416036159346 0.0
0.0 -0.0017874686210289353 0.0
0.0 -0.0017874162859257835 0.0
0.0 -0.001787459652857845 0.0
0.0 -0.001787431903983526 0.0
0.0 -0.0017874403329062687 0.0
0.0 -0.0017874517061241678 0.0
0.0 -0.0017874230404325005 0.0
0.0 -0.0017874641753254474 0.0
0.0 -0.001787416807964987 0.0
0.0 -0.0017874637738699956 0.0
0.0 -0.0017874233275372827 0.0
0.0 -0.001787452408808425 0.0
0.0 -0.0017874377985026757 0.0
0.0 -0.0017874367879596822 0.0
0.0 -0.001787452690514999 0.0
0.0 -0.001787424241570821 0.0
0.0 -0.0017874617138330284 0.0
0.0 -0.0017874194331466424 0.0
0.0 -0.0017874621367419729 0.0
0.0 -0.0017874231227955287 0.0
0.0 -0.001787454988522197 0.0
0.0 -0.0017874328350751445 0.0
0.0 -0.0017874437536094805 0.0
0.0 -0.0017874445438658753 0.0
0.0 -0.001787432556239229 0.0
0.0 -0.001787454406523534 0.0
0.0 -0.0017874246666801721 0.0
0.0 -0.0017874599162681895 0.0
0.0 -0.001787421735376568 0.0
0.0 -0.0017874602841720171 0.0
0.0 -0.0017874237556339179 0.0
0.0 -0.001787456195133161 0.0
0.0 -0.0017874295133590273 0.0
0.0 -0.0017874492301952723 0.0
0.0 -0.0017874372205782247 0.0
0.0 -0.0017874412383318502 0.0
0.0 -0.001787445091070084 0.0
0.0 -0.001787433845959816 0.0
0.0 -0.0017874517271401218 0.0
0.0 -0.001787428180245532 0.0
0.0 -0.0017874562896435778 0.0
0.0 -0.0017874247952076503 0.0
0.0 -0.001787458490872388 0.0
0.0 -0.0017874237424358411 0.0
0.0 -0.0017874584780508606 0.0
0.0 -0.001787424716562371 0.0
0.0 -0.0017874566737454813 0.0
0.0 -0.0017874272166535227 0.0
0.0 -0.0017874536222355296 0.0
0.0 -0.001787430685228983 0.0
0.0 -0.0017874498694619967 0.0
0.0 -0.00178743460713333 0.0
0.0 -0.0017874458858006714 0.0
0.0 -0.001787438565986635 0.0
0.0 -0.0017874420285783608 0.0
0.0 -0.0017874422651040314 0.0
0.0 -0.0017874385350146718 0.0
0.0 -0.0017874455234619196 0.0
0.0 -0.0017874355346857826 0.0
0.0 -0.0017874482572385404 0.0
0.0 -0.001787433071847217 0.0
0.0 -0.0017874504554223614 0.0
0.0 -0.0017874311304452118 0.0
0.0 -0.0017874521552992857 0.0
0.0 -0.0017874296573136147 0.0
0.0 -0.0017874534211255071 0.0
0.0 -0.0017874285812997286 0.0
0.0 -0.0017874543273538135 0.0
0.0 -0.0017874278276748688 0.0
0.0 -0.0017874549464938104 0.0
0.0 -0.0017874273281681477 0.0
0.0 -0.0017874553409743088 0.0
0.0 -0.0017874270274402543 0.0
0.0 -0.0017874555580957205 0.0
0.0 -0.001787426886933895 0.0
0.0 -0.0017874268869339026 0.0
0.0 -0.0017874555580957184 0.0
0.0 -0.001787427027440257 0.0
0.0 -0.0017874553409743068 0.0
0.0 -0.001787427328168151 0.0
0.0 -0.0017874549464938095 0.0
0.0 -0.0017874278276748716 0.0
0.0 -0.001787454327353828 0.0
0.0 -0.0017874285812997234 0.0
0.0 -0.0017874534211254952 0.0
0.0 -0.0017874296573136062 0.0
0.0 -0.001787452155299293 0.0
0.0 -0.0017874311304452088 0.0
0.0 -0.001787450455422361 0.0
0.0 -0.0017874330718471957 0.0
0.0 -0.0017874482572385333 0.0
0.0 -0.0017874355346857746 0.0
0.0 -0.0017874455234619254 0.0
0.0 -0.0017874385350146616 0.0
0.0 -0.0017874422651040377 0.0
0.0 -0.0017874420285783673 0.0
0.0 -0.0017874385659866429 0.0
0.0 -0.001787445885800672 0.0
0.0 -0.0017874346071333309 0.0
0.0 -0.0017874498694620043 0.0
0.0 -0.0017874306852289634 0.0
0.0 -0.0017874536222355264 0.0
0.0 -0.001787427216653513 0.0
0.0 -0.001787456673745474 0.0
0.0 -0.001787424716562365 0.0
0.0 -0.0017874584780508621 0.0
0.0 -0.0017874237424358277 0.0
0.0 -0.0017874584908723797 0.0
0.0 -0.00178742479520767 0.0
0.0 -0.0017874562896435795 0.0
0.0 -0.0017874281802455426 0.0
0.0 -0.0017874517271401187 0.0
0.0 -0.0017874338459598217 0.0
0.0 -0.0017874450910700841 0.0
0.0 -0.0017874412383318467 0.0
0.0 -0.001787437220578215 0.0
0.0 -0.0017874492301952652 0.0
0.0 -0.0017874295133590249 0.0
0.0 -0.0017874561951331748 0.0
0.0 -0.001787423755633913 0.0