# vtk DataFile Version 2.0
data_715
ASCII
DATASET UNSTRUCTURED_GRID
POINTS 804 float
0.0 0.0 0.0
0.1 0.0 0.0
0.1 20.0 0.0
0.0 20.0 0.0
0.0 0.0 -0.1
0.1 0.0 -0.1
0.1 20.0 -0.1
0.0 20.0 -0.1
0.1 0.09999999999992462 0.0
0.1 0.1999999999998517 0.0
0.1 0.2999999999997818 0.0
0.1 0.399999999999712 0.0
0.1 0.4999999999996377 0.0
0.1 0.5999999999995541 0.0
0.1 0.6999999999994495 0.0
0.1 0.7999999999993355 0.0
0.1 0.8999999999992101 0.0
0.1 0.999999999999102 0.0
0.1 1.099999999999006 0.0
0.1 1.199999999998936 0.0
0.1 1.299999999998867 0.0
0.1 1.399999999998797 0.0
0.1 1.499999999998727 0.0
0.1 1.599999999998657 0.0
0.1 1.699999999998587 0.0
0.1 1.799999999998517 0.0
0.1 1.899999999998447 0.0
0.1 1.999999999998378 0.0
0.1 2.099999999998308 0.0
0.1 2.199999999998238 0.0
0.1 2.299999999998168 0.0
0.1 2.399999999998067 0.0
0.1 2.499999999997942 0.0
0.1 2.599999999997706 0.0
0.1 2.699999999997444 0.0
0.1 2.799999999997153 0.0
0.1 2.899999999996861 0.0
0.1 2.999999999996569 0.0
0.1 3.099999999996277 0.0
0.1 3.199999999995984 0.0
0.1 3.299999999995693 0.0
0.1 3.399999999995401 0.0
0.1 3.499999999995108 0.0
0.1 3.599999999994816 0.0
0.1 3.699999999994525 0.0
0.1 3.799999999994232 0.0
0.1 3.89999999999394 0.0
0.1 3.999999999993648 0.0
0.1 4.099999999993356 0.0
0.1 4.199999999993064 0.0
0.1 4.299999999992772 0.0
0.1 4.399999999992479 0.0
0.1 4.499999999992188 0.0
0.1 4.599999999991895 0.0
0.1 4.699999999991603 0.0
0.1 4.799999999991311 0.0
0.1 4.899999999991019 0.0
0.1 4.999999999990727 0.0
0.1 5.099999999990436 0.0
0.1 5.199999999990144 0.0
0.1 5.299999999989851 0.0
0.1 5.399999999989559 0.0
0.1 5.499999999989267 0.0
0.1 5.599999999988975 0.0
0.1 5.699999999988683 0.0
0.1 5.799999999988391 0.0
0.1 5.899999999988099 0.0
0.1 5.999999999987806 0.0
0.1 6.099999999987515 0.0
0.1 6.199999999987222 0.0
0.1 6.299999999986929 0.0
0.1 6.399999999986638 0.0
0.1 6.499999999986345 0.0
0.1 6.599999999986054 0.0
0.1 6.699999999985762 0.0
0.1 6.79999999998547 0.0
0.1 6.899999999985177 0.0
0.1 6.999999999984885 0.0
0.1 7.099999999984593 0.0
0.1 7.199999999984302 0.0
0.1 7.299999999984009 0.0
0.1 7.399999999983717 0.0
0.1 7.499999999983426 0.0
0.1 7.599999999983132 0.0
0.1 7.699999999982841 0.0
0.1 7.799999999982549 0.0
0.1 7.899999999982256 0.0
0.1 7.999999999982034 0.0
0.1 8.099999999981964 0.0
0.1 8.199999999982062 0.0
0.1 8.299999999982214 0.0
0.1 8.399999999982366 0.0
0.1 8.499999999982517 0.0
0.1 8.59999999998267 0.0
0.1 8.699999999982822 0.0
0.1 8.799999999982973 0.0
0.1 8.899999999983125 0.0
0.1 8.999999999983277 0.0
0.1 9.09999999998343 0.0
0.1 9.19999999998358 0.0
0.1 9.299999999983733 0.0
0.1 9.399999999983885 0.0
0.1 9.499999999984038 0.0
0.1 9.599999999984188 0.0
0.1 9.69999999998434 0.0
0.1 9.799999999984493 0.0
0.1 9.899999999984646 0.0
0.1 9.999999999984798 0.0
0.1 10.09999999998495 0.0
0.1 10.1999999999851 0.0
0.1 10.29999999998525 0.0
0.1 10.39999999998541 0.0
0.1 10.49999999998556 0.0
0.1 10.59999999998571 0.0
0.1 10.69999999998586 0.0
0.1 10.79999999998601 0.0
0.1 10.89999999998616 0.0
0.1 10.99999999998632 0.0
0.1 11.09999999998647 0.0
0.1 11.19999999998662 0.0
0.1 11.29999999998677 0.0
0.1 11.39999999998693 0.0
0.1 11.49999999998708 0.0
0.1 11.59999999998723 0.0
0.1 11.69999999998738 0.0
0.1 11.79999999998754 0.0
0.1 11.89999999998769 0.0
0.1 11.99999999998784 0.0
0.1 12.09999999998799 0.0
0.1 12.19999999998814 0.0
0.1 12.2999999999883 0.0
0.1 12.39999999998845 0.0
0.1 12.4999999999886 0.0
0.1 12.59999999998875 0.0
0.1 12.6999999999889 0.0
0.1 12.79999999998905 0.0
0.1 12.89999999998921 0.0
0.1 12.99999999998936 0.0
0.1 13.09999999998951 0.0
0.1 13.19999999998966 0.0
0.1 13.29999999998982 0.0
0.1 13.39999999998997 0.0
0.1 13.49999999999012 0.0
0.1 13.59999999999027 0.0
0.1 13.69999999999042 0.0
0.1 13.79999999999057 0.0
0.1 13.89999999999073 0.0
0.1 13.99999999999088 0.0
0.1 14.09999999999103 0.0
0.1 14.19999999999118 0.0
0.1 14.29999999999134 0.0
0.1 14.39999999999149 0.0
0.1 14.49999999999164 0.0
0.1 14.59999999999179 0.0
0.1 14.69999999999194 0.0
0.1 14.7999999999921 0.0
0.1 14.89999999999225 0.0
0.1 14.9999999999924 0.0
0.1 15.09999999999255 0.0
0.1 15.1999999999927 0.0
0.1 15.29999999999285 0.0
0.1 15.39999999999301 0.0
0.1 15.49999999999316 0.0
0.1 15.59999999999331 0.0
0.1 15.69999999999346 0.0
0.1 15.79999999999362 0.0
0.1 15.89999999999377 0.0
0.1 15.99999999999392 0.0
0.1 16.09999999999407 0.0
0.1 16.19999999999422 0.0
0.1 16.29999999999437 0.0
0.1 16.39999999999453 0.0
0.1 16.49999999999468 0.0
0.1 16.59999999999483 0.0
0.1 16.69999999999498 0.0
0.1 16.79999999999514 0.0
0.1 16.89999999999528 0.0
0.1 16.99999999999544 0.0
0.1 17.09999999999559 0.0
0.1 17.19999999999574 0.0
0.1 17.29999999999589 0.0
0.1 17.39999999999605 0.0
0.1 17.4999999999962 0.0
0.1 17.59999999999635 0.0
0.1 17.6999999999965 0.0
0.1 17.79999999999665 0.0
0.1 17.89999999999681 0.0
0.1 17.99999999999696 0.0
0.1 18.09999999999711 0.0
0.1 18.19999999999726 0.0
0.1 18.29999999999742 0.0
0.1 18.39999999999757 0.0
0.1 18.49999999999772 0.0
0.1 18.59999999999787 0.0
0.1 18.69999999999802 0.0
0.1 18.79999999999818 0.0
0.1 18.89999999999833 0.0
0.1 18.99999999999848 0.0
0.1 19.09999999999863 0.0
0.1 19.19999999999878 0.0
0.1 19.29999999999894 0.0
0.1 19.39999999999909 0.0
0.1 19.49999999999924 0.0
0.1 19.59999999999939 0.0
0.1 19.69999999999955 0.0
0.1 19.7999999999997 0.0
0.1 19.89999999999985 0.0
0.0 19.9 0.0
0.0 19.8 0.0
0.0 19.7 0.0
0.0 19.6 0.0
0.0 19.5 0.0
0.0 19.4 0.0
0.0 19.3 0.0
0.0 19.2 0.0
0.0 19.1 0.0
0.0 19.0 0.0
0.0 18.9 0.0
0.0 18.8 0.0
0.0 18.7 0.0
0.0 18.6 0.0
0.0 18.5 0.0
0.0 18.4 0.0
0.0 18.3 0.0
0.0 18.2 0.0
0.0 18.1 0.0
0.0 18.0 0.0
0.0 17.9 0.0
0.0 17.8 0.0
0.0 17.7 0.0
0.0 17.6 0.0
0.0 17.5 0.0
0.0 17.4 0.0
0.0 17.3 0.0
0.0 17.2 0.0
0.0 17.09999999999999 0.0
0.0 17.0 0.0
0.0 16.9 0.0
0.0 16.8 0.0
0.0 16.7 0.0
0.0 16.59999999999999 0.0
0.0 16.49999999999999 0.0
0.0 16.4 0.0
0.0 16.29999999999999 0.0
0.0 16.2 0.0
0.0 16.09999999999999 0.0
0.0 15.99999999999999 0.0
0.0 15.89999999999999 0.0
0.0 15.79999999999999 0.0
0.0 15.69999999999999 0.0
0.0 15.59999999999999 0.0
0.0 15.49999999999999 0.0
0.0 15.39999999999999 0.0
0.0 15.29999999999999 0.0
0.0 15.19999999999999 0.0
0.0 15.09999999999999 0.0
0.0 14.99999999999999 0.0
0.0 14.89999999999999 0.0
0.0 14.79999999999999 0.0
0.0 14.69999999999999 0.0
0.0 14.59999999999999 0.0
0.0 14.49999999999999 0.0
0.0 14.39999999999999 0.0
0.0 14.29999999999999 0.0
0.0 14.19999999999999 0.0
0.0 14.09999999999999 0.0
0.0 13.99999999999999 0.0
0.0 13.89999999999999 0.0
0.0 13.79999999999999 0.0
0.0 13.69999999999999 0.0
0.0 13.59999999999999 0.0
0.0 13.49999999999999 0.0
0.0 13.39999999999999 0.0
0.0 13.29999999999999 0.0
0.0 13.19999999999999 0.0
0.0 13.09999999999999 0.0
0.0 12.99999999999999 0.0
0.0 12.89999999999999 0.0
0.0 12.79999999999999 0.0
0.0 12.69999999999999 0.0
0.0 12.59999999999999 0.0
0.0 12.49999999999999 0.0
0.0 12.39999999999999 0.0
0.0 12.29999999999999 0.0
0.0 12.19999999999999 0.0
0.0 12.09999999999999 0.0
0.0 11.99999999999999 0.0
0.0 11.89999999999999 0.0
0.0 11.79999999999999 0.0
0.0 11.69999999999999 0.0
0.0 11.59999999999999 0.0
0.0 11.49999999999999 0.0
0.0 11.39999999999999 0.0
0.0 11.29999999999999 0.0
0.0 11.19999999999999 0.0
0.0 11.09999999999999 0.0
0.0 10.99999999999999 0.0
0.0 10.89999999999999 0.0
0.0 10.79999999999999 0.0
0.0 10.69999999999999 0.0
0.0 10.59999999999999 0.0
0.0 10.49999999999999 0.0
0.0 10.39999999999999 0.0
0.0 10.29999999999999 0.0
0.0 10.19999999999999 0.0
0.0 10.09999999999999 0.0
0.0 9.999999999999993 0.0
0.0 9.899999999999993 0.0
0.0 9.799999999999994 0.0
0.0 9.699999999999992 0.0
0.0 9.599999999999993 0.0
0.0 9.499999999999993 0.0
0.0 9.399999999999993 0.0
0.0 9.299999999999995 0.0
0.0 9.199999999999996 0.0
0.0 9.099999999999994 0.0
0.0 8.999999999999995 0.0
0.0 8.899999999999995 0.0
0.0 8.799999999999994 0.0
0.0 8.699999999999994 0.0
0.0 8.599999999999994 0.0
0.0 8.499999999999995 0.0
0.0 8.399999999999995 0.0
0.0 8.299999999999994 0.0
0.0 8.199999999999994 0.0
0.0 8.099999999999994 0.0
0.0 7.999999999999993 0.0
0.0 7.899999999999995 0.0
0.0 7.799999999999995 0.0
0.0 7.699999999999996 0.0
0.0 7.599999999999996 0.0
0.0 7.499999999999996 0.0
0.0 7.399999999999995 0.0
0.0 7.299999999999995 0.0
0.0 7.199999999999996 0.0
0.0 7.099999999999994 0.0
0.0 6.999999999999995 0.0
0.0 6.899999999999995 0.0
0.0 6.799999999999995 0.0
0.0 6.699999999999996 0.0
0.0 6.599999999999994 0.0
0.0 6.499999999999995 0.0
0.0 6.399999999999997 0.0
0.0 6.299999999999997 0.0
0.0 6.199999999999996 0.0
0.0 6.099999999999996 0.0
0.0 5.999999999999996 0.0
0.0 5.899999999999997 0.0
0.0 5.799999999999997 0.0
0.0 5.699999999999996 0.0
0.0 5.599999999999996 0.0
0.0 5.499999999999996 0.0
0.0 5.399999999999995 0.0
0.0 5.299999999999995 0.0
0.0 5.199999999999996 0.0
0.0 5.099999999999996 0.0
0.0 4.999999999999998 0.0
0.0 4.899999999999999 0.0
0.0 4.799999999999997 0.0
0.0 4.699999999999998 0.0
0.0 4.599999999999998 0.0
0.0 4.499999999999996 0.0
0.0 4.399999999999997 0.0
0.0 4.299999999999997 0.0
0.0 4.199999999999998 0.0
0.0 4.099999999999998 0.0
0.0 3.999999999999996 0.0
0.0 3.899999999999999 0.0
0.0 3.799999999999997 0.0
0.0 3.699999999999996 0.0
0.0 3.599999999999998 0.0
0.0 3.5 0.0
0.0 3.399999999999999 0.0
0.0 3.299999999999997 0.0
0.0 3.199999999999999 0.0
0.0 3.099999999999998 0.0
0.0 3.0 0.0
0.0 2.899999999999999 0.0
0.0 2.799999999999997 0.0
0.0 2.699999999999999 0.0
0.0 2.599999999999998 0.0
0.0 2.499999999999996 0.0
0.0 2.399999999999999 0.0
0.0 2.299999999999997 0.0
0.0 2.199999999999999 0.0
0.0 2.100000000000001 0.0
0.0 2.0 0.0
0.0 1.899999999999999 0.0
0.0 1.800000000000001 0.0
0.0 1.699999999999999 0.0
0.0 1.599999999999998 0.0
0.0 1.5 0.0
0.0 1.399999999999999 0.0
0.0 1.299999999999997 0.0
0.0 1.199999999999999 0.0
0.0 1.099999999999998 0.0
0.0 1.0 0.0
0.0 0.8999999999999986 0.0
0.0 0.8000000000000007 0.0
0.0 0.6999999999999993 0.0
0.0 0.6000000000000014 0.0
0.0 0.5 0.0
0.0 0.3999999999999986 0.0
0.0 0.3000000000000007 0.0
0.0 0.1999999999999993 0.0
[...]
POINT_DATA 804
VECTORS displacement double
0.0 0.0 0.0
0.0 0.0 0.0
0.0 0.0017849806749043258 0.0
0.0 0.0017849806749043189 0.0
0.0 0.0 0.0
0.0 0.0 0.0
0.0 0.0017849806749043102 0.0
0.0 0.0017849806749043193 0.0
0.0 -6.1012243262072235e-12 0.0
0.0 -1.1583572943176771e-11 0.0
0.0 -1.8197336825747392e-11 0.0
0.0 -2.3361260439264168e-11 0.0
0.0 -3.004540159843167e-11 0.0
0.0 -3.53975974439864e-11 0.0
0.0 -4.1669359590399466e-11 0.0
0.0 -4.7584403934142027e-11 0.0
0.0 -5.324250556640311e-11 0.0
0.0 -5.97140955903158e-11 0.0
0.0 -6.496958955047025e-11 0.0
0.0 -7.162163976824815e-11 0.0
0.0 -7.694601386682794e-11 0.0
0.0 -8.329860784534049e-11 0.0
0.0 -8.909189730610156e-11 0.0
0.0 -9.489790878935159e-11 0.0
0.0 -1.0121063171443825e-10 0.0
0.0 -1.0662176412361749e-10 0.0
0.0 -1.1313401341215732e-10 0.0
0.0 -1.1857105963007364e-10 0.0
0.0 -1.2484866041009383e-10 0.0
0.0 -1.3066923908627833e-10 0.0
0.0 -1.3650471799913933e-10 0.0
0.0 -1.4272491340903617e-10 0.0
0.0 -1.48292775357559e-10 0.0
0.0 -1.5459118645277138e-10 0.0
0.0 -1.602817120122414e-10 0.0
0.0 -1.6629472023621542e-10 0.0
0.0 -1.7235345275429567e-10 0.0
0.0 -1.780189107624383e-10 0.0
0.0 -1.8430247973091816e-10 0.0
0.0 -1.8994026498299403e-10 0.0
0.0 -1.9602855680514084e-10 0.0
0.0 -2.0205132505045365e-10 0.0
0.0 -2.0765346566794377e-10 0.0
0.0 -2.1413792433024955e-10 0.0
0.0 -2.1943615668314665e-10 0.0
0.0 -2.2595981892962323e-10 0.0
0.0 -2.3153338323960434e-10 0.0
0.0 -2.374933519457335e-10 0.0
0.0 -2.4381524471108334e-10 0.0
0.0 -2.4900495209092264e-10 0.0
0.0 -2.559388026320397e-10 0.0
0.0 -2.60871208180423e-10 0.0
0.0 -2.677377892826937e-10 0.0
0.0 -2.733725067778429e-10 0.0
0.0 -2.7885288626432654e-10 0.0
0.0 -2.794925728569348e-10 0.0
0.0 -2.4751025562074544e-10 0.0
0.0 -7.660829918828894e-11 0.0
0.0 6.505055635017764e-10 0.0
0.0 3.323176857674064e-09 0.0
0.0 1.2238911075870944e-08 0.0
0.0 3.95946759625285e-08 0.0
0.0 1.1750586001970221e-07 0.0
0.0 3.246367222312391e-07 0.0
0.0 8.405581773702873e-07 0.0
0.0 2.0476004826702025e-06 0.0
0.0 4.704455349940845e-06 0.0
0.0 1.0211641289228596e-05 0.0
0.0 2.0965403759288454e-05 0.0
0.0 4.074321661292839e-05 0.0
0.0 7.497844071214114e-05 0.0
0.0 0.00013068358879118127 0.0
0.0 0.00021572443676818237 0.0
0.0 0.0003372130650098575 0.0
0.0 0.0004990536198253881 0.0
0.0 0.0006991426774863116 0.0
0.0 0.0009272523235664297 0.0
0.0 0.0011649034442084388 0.0
0.0 0.001388214253395331 0.0
0.0 0.0015736260610915908 0.0
0.0 0.0017048606629416463 0.0
0.0 0.0017782521019046604 0.0
0.0 0.0018036732865407193 0.0
0.0 0.001800068948879699 0.0
0.0 0.0017874297961322089 0.0
0.0 0.0017792221995394347 0.0
0.0 0.0017791725340598496 0.0
0.0 0.0017836296970309652 0.0
0.0 0.0017871732257610864 0.0
0.0 0.0017872949079463733 0.0
0.0 0.0017852876926737152 0.0
0.0 0.0017838057715483743 0.0
0.0 0.0017840511359489282 0.0
0.0 0.0017851452659057765 0.0
0.0 0.0017856627130380413 0.0
0.0 0.0017852530993658028 0.0
0.0 0.0017846802675434636 0.0
0.0 0.00178464948389553 0.0
0.0 0.001785023483631814 0.0
0.0 0.0017852243239128275 0.0
0.0 0.0017850553449276943 0.0
0.0 0.001784841830556018 0.0
0.0 0.0017848757535866215 0.0
0.0 0.0017850414472241165 0.0
0.0 0.001785075430437389 0.0
0.0 0.001784965976726222 0.0
0.0 0.0017849076950853017 0.0
0.0 0.0017849721930058861 0.0
0.0 0.0017850321979416641 0.0
0.0 0.0017849980041550338 0.0
0.0 0.0017849455117755707 0.0
0.0 0.0017849614291192656 0.0
0.0 0.0017850041514753385 0.0
0.0 0.0017849982477058917 0.0
0.0 0.0017849645719555192 0.0
0.0 0.0017849655944320642 0.0
0.0 0.0017849918963309115 0.0
0.0 0.0017849928115774563 0.0
0.0 0.001784972191264412 0.0
0.0 0.0017849709400024178 0.0
0.0 0.0017849872771530926 0.0
0.0 0.0017849880658463804 0.0
0.0 0.0017849749968153216 0.0
0.0 0.0017849750181873115 0.0
0.0 0.001784985530851733 0.0
0.0 0.0017849846181722348 0.0
0.0 0.0017849761944401337 0.0
0.0 0.0017849779574423193 0.0
0.0 0.0017849845884237922 0.0
0.0 0.0017849821165790152 0.0
0.0 0.001784977105879771 0.0
0.0 0.0017849800847401906 0.0
0.0 0.0017849836108228662 0.0
0.0 0.0017849803744613422 0.0
0.0 0.0017849782115064953 0.0
0.0 0.0017849814540327098 0.0
0.0 0.0017849823938312253 0.0
0.0 0.0017849794152702376 0.0
0.0 0.00178497952140734 0.0
0.0 0.0017849819901493808 0.0
0.0 0.0017849810943046543 0.0
0.0 0.0017849793226311077 0.0
0.0 0.0017849807089277544 0.0
0.0 0.0017849817028373137 0.0
0.0 0.001784980145291955 0.0
0.0 0.0017849799181461471 0.0
0.0 0.0017849813473541883 0.0
0.0 0.0017849809316235145 0.0
0.0 0.001784979893067136 0.0
0.0 0.0017849807240074803 0.0
0.0 0.0017849812272869652 0.0
0.0 0.001784980277326954 0.0
0.0 0.001784980310957946 0.0
0.0 0.0017849811129372012 0.0
0.0 0.001784980677931378 0.0
0.0 0.0017849802100544775 0.0
0.0 0.0017849808426919375 0.0
0.0 0.0017849809056681874 0.0
0.0 0.0017849803157486872 0.0
0.0 0.001784980605894312 0.0
0.0 0.0017849809529979083 0.0
0.0 0.0017849804885238267 0.0
0.0 0.0017849804755209852 0.0
0.0 0.0017849808892367188 0.0
0.0 0.0017849806393910109 0.0
0.0 0.0017849804429892853 0.0
0.0 0.0017849807877115633 0.0
0.0 0.0017849807352986417 0.0
0.0 0.0017849804705299748 0.0
0.0 0.0017849806944007745 0.0
0.0 0.0017849807792263035 0.0
0.0 0.001784980521380642 0.0
0.0 0.0017849806286207462 0.0
0.0 0.0017849807871178802 0.0
0.0 0.001784980572133408 0.0
0.0 0.0017849805920736137 0.0
0.0 0.0017849807752633193 0.0
0.0 0.0017849806122694938 0.0
0.0 0.001784980578425989 0.0
0.0 0.0017849807555438634 0.0
0.0 0.0017849806394699996 0.0
0.0 0.0017849805799275227 0.0
0.0 0.0017849807344319899 0.0
0.0 0.0017849806561179066 0.0
0.0 0.0017849805893034414 0.0
0.0 0.0017849807155070933 0.0
0.0 0.0017849806650712863 0.0
0.0 0.0017849806020540763 0.0
0.0 0.0017849806994074265 0.0
0.0 0.00178498066979435 0.0
0.0 0.001784980614613161 0.0
0.0 0.0017849806867430136 0.0
0.0 0.001784980671879951 0.0
0.0 0.001784980625940087 0.0
0.0 0.0017849806766078288 0.0
0.0 0.0017849806731953012 0.0
0.0 0.001784980634845306 0.0
0.0 0.0017849806691309375 0.0
0.0 0.0017849806737635391 0.0
0.0 0.0017849806419807128 0.0
0.0 0.0017849806631710977 0.0
0.0 0.0017849806744448986 0.0
0.0 0.001784980647098857 0.0
0.0 0.0017849806588309477 0.0
0.0 0.0017849806746204541 0.0
0.0 0.0017849806514114246 0.0
0.0 0.0017849806548936628 0.0
0.0 0.0017849806548936632 0.0
0.0 0.0017849806514114307 0.0
0.0 0.001784980674620447 0.0
0.0 0.0017849806588309414 0.0
0.0 0.0017849806470988639 0.0
0.0 0.0017849806744449034 0.0
0.0 0.001784980663171112 0.0
0.0 0.0017849806419807253 0.0
0.0 0.001784980673763548 0.0
0.0 0.0017849806691309462 0.0
0.0 0.0017849806348453183 0.0
0.0 0.0017849806731952906 0.0
0.0 0.0017849806766078136 0.0
0.0 0.0017849806259400815 0.0
0.0 0.0017849806718799677 0.0
0.0 0.001784980686743014 0.0
0.0 0.0017849806146131685 0.0
0.0 0.0017849806697943524 0.0
0.0 0.001784980699407429 0.0
0.0 0.001784980602054074 0.0
0.0 0.0017849806650712843 0.0
0.0 0.0017849807155071002 0.0
0.0 0.0017849805893034442 0.0
0.0 0.0017849806561179053 0.0
0.0 0.001784980734431992 0.0
0.0 0.0017849805799275216 0.0
0.0 0.001784980639469997 0.0
0.0 0.0017849807555438706 0.0
0.0 0.0017849805784259844 0.0
0.0 0.0017849806122695016 0.0
0.0 0.0017849807752633084 0.0
0.0 0.0017849805920736005 0.0
0.0 0.0017849805721334064 0.0
0.0 0.0017849807871178863 0.0
0.0 0.001784980628620745 0.0
0.0 0.0017849805213806303 0.0
0.0 0.0017849807792262983 0.0
0.0 0.0017849806944007823 0.0
0.0 0.0017849804705299982 0.0
0.0 0.0017849807352986306 0.0
0.0 0.0017849807877115822 0.0
0.0 0.0017849804429892857 0.0
0.0 0.0017849806393910052 0.0
0.0 0.0017849808892367162 0.0
0.0 0.0017849804755209926 0.0
0.0 0.0017849804885238282 0.0
0.0 0.001784980952997913 0.0
0.0 0.0017849806058943113 0.0
0.0 0.0017849803157486985 0.0
0.0 0.0017849809056681796 0.0
0.0 0.0017849808426919401 0.0
0.0 0.0017849802100544767 0.0
0.0 0.001784980677931383 0.0
0.0 0.0017849811129372025 0.0
0.0 0.0017849803109579415 0.0
0.0 0.0017849802773269514 0.0
0.0 0.0017849812272869674 0.0
0.0 0.0017849807240074866 0.0
0.0 0.001784979893067139 0.0
0.0 0.0017849809316235169 0.0
0.0 0.0017849813473541816 0.0
0.0 0.0017849799181461404 0.0
0.0 0.0017849801452919486 0.0
0.0 0.0017849817028373135 0.0
0.0 0.001784980708927758 0.0
0.0 0.0017849793226311194 0.0
0.0 0.0017849810943046406 0.0
0.0 0.0017849819901493659 0.0
0.0 0.0017849795214073447 0.0
0.0 0.0017849794152702545 0.0
0.0 0.0017849823938312288 0.0
0.0 0.0017849814540326946 0.0
0.0 0.0017849782115064944 0.0
0.0 0.0017849803744613454 0.0
0.0 0.0017849836108228575 0.0
0.0 0.001784980084740198 0.0
0.0 0.0017849771058797556 0.0
0.0 0.0017849821165790015 0.0
0.0 0.0017849845884237798 0.0
0.0 0.0017849779574423189 0.0
0.0 0.0017849761944401345 0.0
0.0 0.0017849846181722142 0.0
0.0 0.0017849855308517384 0.0
0.0 0.0017849750181873078 0.0
0.0 0.0017849749968153156 0.0
0.0 0.001784988065846382 0.0
0.0 0.0017849872771530822 0.0
0.0 0.0017849709400024171 0.0
0.0 0.0017849721912644068 0.0
0.0 0.0017849928115774658 0.0
0.0 0.0017849918963309282 0.0
0.0 0.0017849655944320638 0.0
0.0 0.0017849645719555346 0.0
0.0 0.0017849982477058915 0.0
0.0 0.0017850041514753398 0.0
0.0 0.0017849614291192669 0.0
0.0 0.0017849455117755638 0.0
0.0 0.0017849980041550076 0.0
0.0 0.001785032197941674 0.0
0.0 0.001784972193005905 0.0
0.0 0.0017849076950853119 0.0
0.0 0.0017849659767262122 0.0
0.0 0.001785075430437386 0.0
0.0 0.0017850414472241468 0.0
0.0 0.0017848757535866462 0.0
0.0 0.0017848418305559987 0.0
0.0 0.001785055344927655 0.0
0.0 0.0017852243239128243 0.0
0.0 0.0017850234836318682 0.0
0.0 0.001784649483895576 0.0
0.0 0.0017846802675434152 0.0
0.0 0.0017852530993656916 0.0
0.0 0.0017856627130380545 0.0
0.0 0.0017851452659059565 0.0
0.0 0.0017840511359490923 0.0
0.0 0.0017838057715482683 0.0
0.0 0.0017852876926733629 0.0
0.0 0.0017872949079461428 0.0
0.0 0.001787173225761416 0.0
0.0 0.0017836296970318198 0.0
0.0 0.001779172534060407 0.0
0.0 0.0017792221995387347 0.0
0.0 0.0017874297961301712 0.0
0.0 0.0018000689488778387 0.0
0.0 0.0018036732865419627 0.0
0.0 0.0017782521019122995 0.0
0.0 0.001704860662957938 0.0
0.0 0.0015736260611167406 0.0
0.0 0.0013882142534273612 0.0
0.0 0.0011649034442438968 0.0
0.0 0.0009272523236014794 0.0
0.0 0.0006991426775177504 0.0
0.0 0.0004990536198512676 0.0
0.0 0.0003372130650295566 0.0
0.0 0.0002157244367821236 0.0
0.0 0.0001306835888003943 0.0
0.0 7.497844071784103e-05 0.0
0.0 4.074321661623722e-05 0.0
0.0 2.0965403761093797e-05 0.0
0.0 1.021164129015551e-05 0.0
0.0 4.7044553503885624e-06 0.0
0.0 2.04760048287377e-06 0.0
0.0 8.405581774573055e-07 0.0
0.0 3.24636722266206e-07 0.0
0.0 1.1750586003285689e-07 0.0
0.0 3.9594675967140906e-08 0.0
0.0 1.2238911077378185e-08 0.0
0.0 3.323176858131689e-09 0.0
0.0 6.505055636265269e-10 0.0
0.0 -7.660829915976461e-11 0.0
0.0 -2.47510255627106e-10 0.0
0.0 -2.794925728755157e-10 0.0
0.0 -2.7885288627065825e-10 0.0
0.0 -2.733725067727951e-10 0.0
0.0 -2.677377892760299e-10 0.0
0.0 -2.6087120817110616e-10 0.0
0.0 -2.5593880262399384e-10 0.0
0.0 -2.4900495208857247e-10 0.0
0.0 -2.4381524472083094e-10 0.0
0.0 -2.374933519686626e-10 0.0
0.0 -2.3153338326249558e-10 0.0
0.0 -2.2595981893754576e-10 0.0
0.0 -2.1943615666746049e-10 0.0
0.0 -2.1413792431550422e-10 0.0
0.0 -2.0765346566889451e-10 0.0
0.0 -2.0205132503775087e-10 0.0
0.0 -1.9602855678488667e-10 0.0
0.0 -1.8994026498123113e-10 0.0
0.0 -1.8430247973569417e-10 0.0
0.0 -1.7801891075737133e-10 0.0
0.0 -1.723534527417237e-10 0.0
0.0 -1.662947202303696e-10 0.0
0.0 -1.6028171202150527e-10 0.0
0.0 -1.5459118645947167e-10 0.0
0.0 -1.4829277534811223e-10 0.0
0.0 -1.4272491340578044e-10 0.0
0.0 -1.365047180173226e-10 0.0
0.0 -1.3066923910281944e-10 0.0
0.0 -1.2484866040794965e-10 0.0
0.0 -1.1857105962428583e-10 0.0
0.0 -1.1313401341242815e-10 0.0
0.0 -1.0662176411939804e-10 0.0
0.0 -1.0121063170436301e-10 0.0
0.0 -9.48979087865055e-11 0.0
0.0 -8.909189731297453e-11 0.0
0.0 -8.329860785243132e-11 0.0
0.0 -7.694601387042761e-11 0.0
0.0 -7.162163977299942e-11 0.0
0.0 -6.496958955701475e-11 0.0
0.0 -5.97140955948579e-11 0.0
0.0 -5.324250557122346e-11 0.0
0.0 -4.758440393596463e-11 0.0
0.0 -4.166935958666408e-11 0.0
0.0 -3.5397597440457324e-11 0.0
0.0 -3.004540159460109e-11 0.0
0.0 -2.336126043859489e-11 0.0
0.0 -1.8197336830404636e-11 0.0
0.0 -1.1583572942980227e-11 0.0
0.0 -6.101224320387748e-12 0.0
0.0 -6.10122433670931e-12 0.0
0.0 -1.1583572958227405e-11 0.0
0.0 -1.8197336833582486e-11 0.0
0.0 -2.3361260442628625e-11 0.0
0.0 -3.0045401604783815e-11 0.0
0.0 -3.5397597448074546e-11 0.0
0.0 -4.166935959028511e-11 0.0
0.0 -4.758440392878533e-11 0.0
0.0 -5.3242505555675825e-11 0.0
0.0 -5.971409558125437e-11 0.0
0.0 -6.496958954432929e-11 0.0
0.0 -7.162163976865185e-11 0.0
0.0 -7.694601387799365e-11 0.0
0.0 -8.32986078556832e-11 0.0
0.0 -8.909189730509678e-11 0.0
0.0 -9.489790878096717e-11 0.0
0.0 -1.012106317057233e-10 0.0
0.0 -1.0662176412284727e-10 0.0
0.0 -1.1313401342353913e-10 0.0
0.0 -1.1857105964144298e-10 0.0
0.0 -1.2484866041008646e-10 0.0
0.0 -1.3066923907621894e-10 0.0
0.0 -1.3650471798349918e-10 0.0
0.0 -1.4272491340061105e-10 0.0
0.0 -1.4829277535878193e-10 0.0
0.0 -1.545911864474536e-10 0.0
0.0 -1.6028171199985157e-10 0.0
0.0 -1.6629472022738964e-10 0.0
0.0 -1.7235345274950177e-10 0.0
0.0 -1.7801891076402687e-10 0.0
0.0 -1.8430247974280453e-10 0.0
0.0 -1.8994026499558093e-10 0.0
0.0 -1.9602855680624264e-10 0.0
0.0 -2.0205132504280355e-10 0.0
0.0 -2.076534656552548e-10 0.0
0.0 -2.1413792431621343e-10 0.0
0.0 -2.1943615668369608e-10 0.0
0.0 -2.2595981894439777e-10 0.0
0.0 -2.3153338325153657e-10 0.0
0.0 -2.374933519498518e-10 0.0
0.0 -2.4381524470842096e-10 0.0
0.0 -2.490049520748008e-10 0.0
0.0 -2.5593880261578444e-10 0.0
0.0 -2.6087120818119166e-10 0.0
0.0 -2.677377892835844e-10 0.0
0.0 -2.733725067830582e-10 0.0
0.0 -2.788528862883789e-10 0.0
0.0 -2.7949257287460354e-10 0.0
0.0 -2.475102556083616e-10 0.0
0.0 -7.660829916690642e-11 0.0
0.0 6.505055635047294e-10 0.0
0.0 3.3231768576711517e-09 0.0
0.0 1.2238911075868664e-08 0.0
0.0 3.95946759625134e-08 0.0
0.0 1.1750586001968848e-07 0.0
0.0 3.246367222312446e-07 0.0
0.0 8.405581773702695e-07 0.0
0.0 2.0476004826701957e-06 0.0
0.0 4.704455349940781e-06 0.0
0.0 1.0211641289228664e-05 0.0
0.0 2.0965403759288383e-05 0.0
0.0 4.074321661292831e-05 0.0
0.0 7.497844071214142e-05 0.0
0.0 0.0001306835887911813 0.0
0.0 0.00021572443676818188 0.0
0.0 0.00033721306500985806 0.0
0.0 0.0004990536198253867 0.0
0.0 0.0006991426774863107 0.0
0.0 0.0009272523235664319 0.0
0.0 0.0011649034442084364 0.0
0.0 0.0013882142533953373 0.0
0.0 0.0015736260610915943 0.0
0.0 0.0017048606629416472 0.0
0.0 0.0017782521019046585 0.0
0.0 0.0018036732865407226 0.0
0.0 0.0018000689488796968 0.0
0.0 0.0017874297961322045 0.0
0.0 0.0017792221995394399 0.0
0.0 0.001779172534059847 0.0
0.0 0.0017836296970309767 0.0
0.0 0.0017871732257610773 0.0
0.0 0.0017872949079463852 0.0
0.0 0.0017852876926737389 0.0
0.0 0.001783805771548376 0.0
0.0 0.0017840511359489312 0.0
0.0 0.0017851452659057828 0.0
0.0 0.0017856627130380506 0.0
0.0 0.0017852530993657976 0.0
0.0 0.0017846802675434788 0.0
0.0 0.0017846494838955288 0.0
0.0 0.001785023483631811 0.0
0.0 0.0017852243239128193 0.0
0.0 0.0017850553449276923 0.0
0.0 0.0017848418305560043 0.0
0.0 0.0017848757535866172 0.0
0.0 0.0017850414472241278 0.0
0.0 0.0017850754304373883 0.0
0.0 0.0017849659767262235 0.0
0.0 0.0017849076950853043 0.0
0.0 0.0017849721930058807 0.0
0.0 0.0017850321979416674 0.0
0.0 0.0017849980041550128 0.0
0.0 0.001784945511775564 0.0
0.0 0.0017849614291192647 0.0
0.0 0.0017850041514753392 0.0
0.0 0.0017849982477058871 0.0
0.0 0.0017849645719555357 0.0
0.0 0.0017849655944320623 0.0
0.0 0.0017849918963309102 0.0
0.0 0.0017849928115774671 0.0
0.0 0.0017849721912644053 0.0
0.0 0.0017849709400024109 0.0
0.0 0.001784987277153073 0.0
0.0 0.0017849880658463843 0.0
0.0 0.0017849749968153056 0.0
0.0 0.001784975018187305 0.0
0.0 0.001784985530851737 0.0
0.0 0.001784984618172224 0.0
0.0 0.001784976194440142 0.0
0.0 0.0017849779574423148 0.0
0.0 0.0017849845884237935 0.0
0.0 0.0017849821165790037 0.0
0.0 0.001784977105879751 0.0
0.0 0.001784980084740192 0.0
0.0 0.0017849836108228606 0.0
0.0 0.0017849803744613385 0.0
0.0 0.0017849782115064879 0.0
0.0 0.0017849814540326942 0.0
0.0 0.0017849823938312199 0.0
0.0 0.0017849794152702513 0.0
0.0 0.0017849795214073484 0.0
0.0 0.0017849819901493654 0.0
0.0 0.0017849810943046467 0.0
0.0 0.0017849793226311162 0.0
0.0 0.0017849807089277724 0.0
0.0 0.0017849817028373063 0.0
0.0 0.0017849801452919525 0.0
0.0 0.0017849799181461332 0.0
0.0 0.0017849813473541768 0.0
0.0 0.0017849809316235164 0.0
0.0 0.0017849798930671401 0.0
0.0 0.001784980724007496 0.0
0.0 0.0017849812272869706 0.0
0.0 0.0017849802773269553 0.0
0.0 0.0017849803109579439 0.0
0.0 0.0017849811129371986 0.0
0.0 0.0017849806779313773 0.0
0.0 0.0017849802100544847 0.0
0.0 0.001784980842691936 0.0
0.0 0.0017849809056681943 0.0
0.0 0.001784980315748709 0.0
0.0 0.0017849806058943228 0.0
0.0 0.0017849809529979172 0.0
0.0 0.0017849804885238353 0.0
0.0 0.0017849804755209937 0.0
0.0 0.0017849808892367138 0.0
0.0 0.001784980639391017 0.0
0.0 0.0017849804429892937 0.0
0.0 0.001784980787711587 0.0
0.0 0.0017849807352986224 0.0
0.0 0.0017849804705299941 0.0
0.0 0.001784980694400777 0.0
0.0 0.0017849807792262974 0.0
0.0 0.001784980521380642 0.0
0.0 0.001784980628620762 0.0
0.0 0.0017849807871178872 0.0
0.0 0.0017849805721334166 0.0
0.0 0.0017849805920736154 0.0
0.0 0.0017849807752633215 0.0
0.0 0.001784980612269496 0.0
0.0 0.0017849805784259786 0.0
0.0 0.00178498075554388 0.0
0.0 0.0017849806394700065 0.0
0.0 0.001784980579927528 0.0
0.0 0.001784980734431994 0.0
0.0 0.0017849806561179066 0.0
0.0 0.0017849805893034448 0.0
0.0 0.0017849807155071043 0.0
0.0 0.0017849806650712936 0.0
0.0 0.0017849806020540696 0.0
0.0 0.00178498069940743 0.0
0.0 0.0017849806697943552 0.0
0.0 0.0017849806146131735 0.0
0.0 0.0017849806867430108 0.0
0.0 0.001784980671879965 0.0
0.0 0.0017849806259400895 0.0
0.0 0.001784980676607827 0.0
0.0 0.001784980673195289 0.0
0.0 0.0017849806348453157 0.0
0.0 0.001784980669130938 0.0
0.0 0.0017849806737635391 0.0
0.0 0.0017849806419807197 0.0
0.0 0.001784980663171113 0.0
0.0 0.0017849806744449051 0.0
0.0 0.0017849806470988652 0.0
0.0 0.0017849806588309408 0.0
0.0 0.001784980674620443 0.0
0.0 0.0017849806514114233 0.0
0.0 0.0017849806548936628 0.0
0.0 0.0017849806548936632 0.0
0.0 0.0017849806514114149 0.0
0.0 0.0017849806746204496 0.0
0.0 0.00178498065883094 0.0
0.0 0.001784980647098866 0.0
0.0 0.001784980674444901 0.0
0.0 0.0017849806631711007 0.0
0.0 0.0017849806419807117 0.0
0.0 0.001784980673763544 0.0
0.0 0.0017849806691309534 0.0
0.0 0.0017849806348453066 0.0
0.0 0.001784980673195299 0.0
0.0 0.0017849806766078277 0.0
0.0 0.001784980625940084 0.0
0.0 0.001784980671879961 0.0
0.0 0.0017849806867430095 0.0
0.0 0.0017849806146131564 0.0
0.0 0.0017849806697943546 0.0
0.0 0.0017849806994074257 0.0
0.0 0.0017849806020540796 0.0
0.0 0.0017849806650712904 0.0
0.0 0.0017849807155070985 0.0
0.0 0.0017849805893034381 0.0
0.0 0.0017849806561179048 0.0
0.0 0.0017849807344319975 0.0
0.0 0.001784980579927521 0.0
0.0 0.0017849806394700028 0.0
0.0 0.0017849807555438634 0.0
0.0 0.0017849805784259834 0.0
0.0 0.0017849806122694856 0.0
0.0 0.0017849807752633188 0.0
0.0 0.0017849805920736022 0.0
0.0 0.0017849805721334073 0.0
0.0 0.0017849807871178822 0.0
0.0 0.00178498062862075 0.0
0.0 0.0017849805213806537 0.0
0.0 0.0017849807792263055 0.0
0.0 0.0017849806944007659 0.0
0.0 0.001784980470529973 0.0
0.0 0.0017849807352986362 0.0
0.0 0.0017849807877115694 0.0
0.0 0.0017849804429892902 0.0
0.0 0.0017849806393909996 0.0
0.0 0.001784980889236716 0.0
0.0 0.0017849804755209744 0.0
0.0 0.0017849804885238278 0.0
0.0 0.0017849809529979048 0.0
0.0 0.0017849806058943104 0.0
0.0 0.0017849803157486887 0.0
0.0 0.0017849809056681852 0.0
0.0 0.0017849808426919338 0.0
0.0 0.0017849802100544647 0.0
0.0 0.0017849806779313708 0.0
0.0 0.0017849811129372066 0.0
0.0 0.001784980310957956 0.0
0.0 0.0017849802773269518 0.0
0.0 0.0017849812272869735 0.0