# vtk DataFile Version 2.0
data_735
ASCII
DATASET UNSTRUCTURED_GRID
POINTS 804 float
0.0 0.0 0.0
0.1 0.0 0.0
0.1 20.0 0.0
0.0 20.0 0.0
0.0 0.0 -0.1
0.1 0.0 -0.1
0.1 20.0 -0.1
0.0 20.0 -0.1
0.1 0.09999999999992462 0.0
0.1 0.1999999999998517 0.0
0.1 0.2999999999997818 0.0
0.1 0.399999999999712 0.0
0.1 0.4999999999996377 0.0
0.1 0.5999999999995541 0.0
0.1 0.6999999999994495 0.0
0.1 0.7999999999993355 0.0
0.1 0.8999999999992101 0.0
0.1 0.999999999999102 0.0
0.1 1.099999999999006 0.0
0.1 1.199999999998936 0.0
0.1 1.299999999998867 0.0
0.1 1.399999999998797 0.0
0.1 1.499999999998727 0.0
0.1 1.599999999998657 0.0
0.1 1.699999999998587 0.0
0.1 1.799999999998517 0.0
0.1 1.899999999998447 0.0
0.1 1.999999999998378 0.0
0.1 2.099999999998308 0.0
0.1 2.199999999998238 0.0
0.1 2.299999999998168 0.0
0.1 2.399999999998067 0.0
0.1 2.499999999997942 0.0
0.1 2.599999999997706 0.0
0.1 2.699999999997444 0.0
0.1 2.799999999997153 0.0
0.1 2.899999999996861 0.0
0.1 2.999999999996569 0.0
0.1 3.099999999996277 0.0
0.1 3.199999999995984 0.0
0.1 3.299999999995693 0.0
0.1 3.399999999995401 0.0
0.1 3.499999999995108 0.0
0.1 3.599999999994816 0.0
0.1 3.699999999994525 0.0
0.1 3.799999999994232 0.0
0.1 3.89999999999394 0.0
0.1 3.999999999993648 0.0
0.1 4.099999999993356 0.0
0.1 4.199999999993064 0.0
0.1 4.299999999992772 0.0
0.1 4.399999999992479 0.0
0.1 4.499999999992188 0.0
0.1 4.599999999991895 0.0
0.1 4.699999999991603 0.0
0.1 4.799999999991311 0.0
0.1 4.899999999991019 0.0
0.1 4.999999999990727 0.0
0.1 5.099999999990436 0.0
0.1 5.199999999990144 0.0
0.1 5.299999999989851 0.0
0.1 5.399999999989559 0.0
0.1 5.499999999989267 0.0
0.1 5.599999999988975 0.0
0.1 5.699999999988683 0.0
0.1 5.799999999988391 0.0
0.1 5.899999999988099 0.0
0.1 5.999999999987806 0.0
0.1 6.099999999987515 0.0
0.1 6.199999999987222 0.0
0.1 6.299999999986929 0.0
0.1 6.399999999986638 0.0
0.1 6.499999999986345 0.0
0.1 6.599999999986054 0.0
0.1 6.699999999985762 0.0
0.1 6.79999999998547 0.0
0.1 6.899999999985177 0.0
0.1 6.999999999984885 0.0
0.1 7.099999999984593 0.0
0.1 7.199999999984302 0.0
0.1 7.299999999984009 0.0
0.1 7.399999999983717 0.0
0.1 7.499999999983426 0.0
0.1 7.599999999983132 0.0
0.1 7.699999999982841 0.0
0.1 7.799999999982549 0.0
0.1 7.899999999982256 0.0
0.1 7.999999999982034 0.0
0.1 8.099999999981964 0.0
0.1 8.199999999982062 0.0
0.1 8.299999999982214 0.0
0.1 8.399999999982366 0.0
0.1 8.499999999982517 0.0
0.1 8.59999999998267 0.0
0.1 8.699999999982822 0.0
0.1 8.799999999982973 0.0
0.1 8.899999999983125 0.0
0.1 8.999999999983277 0.0
0.1 9.09999999998343 0.0
0.1 9.19999999998358 0.0
0.1 9.299999999983733 0.0
0.1 9.399999999983885 0.0
0.1 9.499999999984038 0.0
0.1 9.599999999984188 0.0
0.1 9.69999999998434 0.0
0.1 9.799999999984493 0.0
0.1 9.899999999984646 0.0
0.1 9.999999999984798 0.0
0.1 10.09999999998495 0.0
0.1 10.1999999999851 0.0
0.1 10.29999999998525 0.0
0.1 10.39999999998541 0.0
0.1 10.49999999998556 0.0
0.1 10.59999999998571 0.0
0.1 10.69999999998586 0.0
0.1 10.79999999998601 0.0
0.1 10.89999999998616 0.0
0.1 10.99999999998632 0.0
0.1 11.09999999998647 0.0
0.1 11.19999999998662 0.0
0.1 11.29999999998677 0.0
0.1 11.39999999998693 0.0
0.1 11.49999999998708 0.0
0.1 11.59999999998723 0.0
0.1 11.69999999998738 0.0
0.1 11.79999999998754 0.0
0.1 11.89999999998769 0.0
0.1 11.99999999998784 0.0
0.1 12.09999999998799 0.0
0.1 12.19999999998814 0.0
0.1 12.2999999999883 0.0
0.1 12.39999999998845 0.0
0.1 12.4999999999886 0.0
0.1 12.59999999998875 0.0
0.1 12.6999999999889 0.0
0.1 12.79999999998905 0.0
0.1 12.89999999998921 0.0
0.1 12.99999999998936 0.0
0.1 13.09999999998951 0.0
0.1 13.19999999998966 0.0
0.1 13.29999999998982 0.0
0.1 13.39999999998997 0.0
0.1 13.49999999999012 0.0
0.1 13.59999999999027 0.0
0.1 13.69999999999042 0.0
0.1 13.79999999999057 0.0
0.1 13.89999999999073 0.0
0.1 13.99999999999088 0.0
0.1 14.09999999999103 0.0
0.1 14.19999999999118 0.0
0.1 14.29999999999134 0.0
0.1 14.39999999999149 0.0
0.1 14.49999999999164 0.0
0.1 14.59999999999179 0.0
0.1 14.69999999999194 0.0
0.1 14.7999999999921 0.0
0.1 14.89999999999225 0.0
0.1 14.9999999999924 0.0
0.1 15.09999999999255 0.0
0.1 15.1999999999927 0.0
0.1 15.29999999999285 0.0
0.1 15.39999999999301 0.0
0.1 15.49999999999316 0.0
0.1 15.59999999999331 0.0
0.1 15.69999999999346 0.0
0.1 15.79999999999362 0.0
0.1 15.89999999999377 0.0
0.1 15.99999999999392 0.0
0.1 16.09999999999407 0.0
0.1 16.19999999999422 0.0
0.1 16.29999999999437 0.0
0.1 16.39999999999453 0.0
0.1 16.49999999999468 0.0
0.1 16.59999999999483 0.0
0.1 16.69999999999498 0.0
0.1 16.79999999999514 0.0
0.1 16.89999999999528 0.0
0.1 16.99999999999544 0.0
0.1 17.09999999999559 0.0
0.1 17.19999999999574 0.0
0.1 17.29999999999589 0.0
0.1 17.39999999999605 0.0
0.1 17.4999999999962 0.0
0.1 17.59999999999635 0.0
0.1 17.6999999999965 0.0
0.1 17.79999999999665 0.0
0.1 17.89999999999681 0.0
0.1 17.99999999999696 0.0
0.1 18.09999999999711 0.0
0.1 18.19999999999726 0.0
0.1 18.29999999999742 0.0
0.1 18.39999999999757 0.0
0.1 18.49999999999772 0.0
0.1 18.59999999999787 0.0
0.1 18.69999999999802 0.0
0.1 18.79999999999818 0.0
0.1 18.89999999999833 0.0
0.1 18.99999999999848 0.0
0.1 19.09999999999863 0.0
0.1 19.19999999999878 0.0
0.1 19.29999999999894 0.0
0.1 19.39999999999909 0.0
0.1 19.49999999999924 0.0
0.1 19.59999999999939 0.0
0.1 19.69999999999955 0.0
0.1 19.7999999999997 0.0
0.1 19.89999999999985 0.0
0.0 19.9 0.0
0.0 19.8 0.0
0.0 19.7 0.0
0.0 19.6 0.0
0.0 19.5 0.0
0.0 19.4 0.0
0.0 19.3 0.0
0.0 19.2 0.0
0.0 19.1 0.0
0.0 19.0 0.0
0.0 18.9 0.0
0.0 18.8 0.0
0.0 18.7 0.0
0.0 18.6 0.0
0.0 18.5 0.0
0.0 18.4 0.0
0.0 18.3 0.0
0.0 18.2 0.0
0.0 18.1 0.0
0.0 18.0 0.0
0.0 17.9 0.0
0.0 17.8 0.0
0.0 17.7 0.0
0.0 17.6 0.0
0.0 17.5 0.0
0.0 17.4 0.0
0.0 17.3 0.0
0.0 17.2 0.0
0.0 17.09999999999999 0.0
0.0 17.0 0.0
0.0 16.9 0.0
0.0 16.8 0.0
0.0 16.7 0.0
0.0 16.59999999999999 0.0
0.0 16.49999999999999 0.0
0.0 16.4 0.0
0.0 16.29999999999999 0.0
0.0 16.2 0.0
0.0 16.09999999999999 0.0
0.0 15.99999999999999 0.0
0.0 15.89999999999999 0.0
0.0 15.79999999999999 0.0
0.0 15.69999999999999 0.0
0.0 15.59999999999999 0.0
0.0 15.49999999999999 0.0
0.0 15.39999999999999 0.0
0.0 15.29999999999999 0.0
0.0 15.19999999999999 0.0
0.0 15.09999999999999 0.0
0.0 14.99999999999999 0.0
0.0 14.89999999999999 0.0
0.0 14.79999999999999 0.0
0.0 14.69999999999999 0.0
0.0 14.59999999999999 0.0
0.0 14.49999999999999 0.0
0.0 14.39999999999999 0.0
0.0 14.29999999999999 0.0
0.0 14.19999999999999 0.0
0.0 14.09999999999999 0.0
0.0 13.99999999999999 0.0
0.0 13.89999999999999 0.0
0.0 13.79999999999999 0.0
0.0 13.69999999999999 0.0
0.0 13.59999999999999 0.0
0.0 13.49999999999999 0.0
0.0 13.39999999999999 0.0
0.0 13.29999999999999 0.0
0.0 13.19999999999999 0.0
0.0 13.09999999999999 0.0
0.0 12.99999999999999 0.0
0.0 12.89999999999999 0.0
0.0 12.79999999999999 0.0
0.0 12.69999999999999 0.0
0.0 12.59999999999999 0.0
0.0 12.49999999999999 0.0
0.0 12.39999999999999 0.0
0.0 12.29999999999999 0.0
0.0 12.19999999999999 0.0
0.0 12.09999999999999 0.0
0.0 11.99999999999999 0.0
0.0 11.89999999999999 0.0
0.0 11.79999999999999 0.0
0.0 11.69999999999999 0.0
0.0 11.59999999999999 0.0
0.0 11.49999999999999 0.0
0.0 11.39999999999999 0.0
0.0 11.29999999999999 0.0
0.0 11.19999999999999 0.0
0.0 11.09999999999999 0.0
0.0 10.99999999999999 0.0
0.0 10.89999999999999 0.0
0.0 10.79999999999999 0.0
0.0 10.69999999999999 0.0
0.0 10.59999999999999 0.0
0.0 10.49999999999999 0.0
0.0 10.39999999999999 0.0
0.0 10.29999999999999 0.0
0.0 10.19999999999999 0.0
0.0 10.09999999999999 0.0
0.0 9.999999999999993 0.0
0.0 9.899999999999993 0.0
0.0 9.799999999999994 0.0
0.0 9.699999999999992 0.0
0.0 9.599999999999993 0.0
0.0 9.499999999999993 0.0
0.0 9.399999999999993 0.0
0.0 9.299999999999995 0.0
0.0 9.199999999999996 0.0
0.0 9.099999999999994 0.0
0.0 8.999999999999995 0.0
0.0 8.899999999999995 0.0
0.0 8.799999999999994 0.0
0.0 8.699999999999994 0.0
0.0 8.599999999999994 0.0
0.0 8.499999999999995 0.0
0.0 8.399999999999995 0.0
0.0 8.299999999999994 0.0
0.0 8.199999999999994 0.0
0.0 8.099999999999994 0.0
0.0 7.999999999999993 0.0
0.0 7.899999999999995 0.0
0.0 7.799999999999995 0.0
0.0 7.699999999999996 0.0
0.0 7.599999999999996 0.0
0.0 7.499999999999996 0.0
0.0 7.399999999999995 0.0
0.0 7.299999999999995 0.0
0.0 7.199999999999996 0.0
0.0 7.099999999999994 0.0
0.0 6.999999999999995 0.0
0.0 6.899999999999995 0.0
0.0 6.799999999999995 0.0
0.0 6.699999999999996 0.0
0.0 6.599999999999994 0.0
0.0 6.499999999999995 0.0
0.0 6.399999999999997 0.0
0.0 6.299999999999997 0.0
0.0 6.199999999999996 0.0
0.0 6.099999999999996 0.0
0.0 5.999999999999996 0.0
0.0 5.899999999999997 0.0
0.0 5.799999999999997 0.0
0.0 5.699999999999996 0.0
0.0 5.599999999999996 0.0
0.0 5.499999999999996 0.0
0.0 5.399999999999995 0.0
0.0 5.299999999999995 0.0
0.0 5.199999999999996 0.0
0.0 5.099999999999996 0.0
0.0 4.999999999999998 0.0
0.0 4.899999999999999 0.0
0.0 4.799999999999997 0.0
0.0 4.699999999999998 0.0
0.0 4.599999999999998 0.0
0.0 4.499999999999996 0.0
0.0 4.399999999999997 0.0
0.0 4.299999999999997 0.0
0.0 4.199999999999998 0.0
0.0 4.099999999999998 0.0
0.0 3.999999999999996 0.0
0.0 3.899999999999999 0.0
0.0 3.799999999999997 0.0
0.0 3.699999999999996 0.0
0.0 3.599999999999998 0.0
0.0 3.5 0.0
0.0 3.399999999999999 0.0
0.0 3.299999999999997 0.0
0.0 3.199999999999999 0.0
0.0 3.099999999999998 0.0
0.0 3.0 0.0
0.0 2.899999999999999 0.0
0.0 2.799999999999997 0.0
0.0 2.699999999999999 0.0
0.0 2.599999999999998 0.0
0.0 2.499999999999996 0.0
0.0 2.399999999999999 0.0
0.0 2.299999999999997 0.0
0.0 2.199999999999999 0.0
0.0 2.100000000000001 0.0
0.0 2.0 0.0
0.0 1.899999999999999 0.0
0.0 1.800000000000001 0.0
0.0 1.699999999999999 0.0
0.0 1.599999999999998 0.0
0.0 1.5 0.0
0.0 1.399999999999999 0.0
0.0 1.299999999999997 0.0
0.0 1.199999999999999 0.0
0.0 1.099999999999998 0.0
0.0 1.0 0.0
0.0 0.8999999999999986 0.0
0.0 0.8000000000000007 0.0
0.0 0.6999999999999993 0.0
0.0 0.6000000000000014 0.0
0.0 0.5 0.0
0.0 0.3999999999999986 0.0
0.0 0.3000000000000007 0.0
0.0 0.1999999999999993 0.0
[...]
POINT_DATA 804
VECTORS displacement double
0.0 0.0 0.0
0.0 0.0 0.0
0.0 0.0017848722678425759 0.0
0.0 0.0017848722678425687 0.0
0.0 0.0 0.0
0.0 0.0 0.0
0.0 0.0017848722678425741 0.0
0.0 0.0017848722678425817 0.0
0.0 -5.91545759829369e-12 0.0
0.0 -1.1920719877182748e-11 0.0
0.0 -1.7765640900617992e-11 0.0
0.0 -2.3807189936981603e-11 0.0
0.0 -2.965747275880115e-11 0.0
0.0 -3.565396939602186e-11 0.0
0.0 -4.157808591251697e-11 0.0
0.0 -4.7489540507094436e-11 0.0
0.0 -5.3489599856536014e-11 0.0
0.0 -5.935263827410202e-11 0.0
0.0 -6.536143544626743e-11 0.0
0.0 -7.125814017798649e-11 0.0
0.0 -7.719870495440693e-11 0.0
0.0 -8.318104402526035e-11 0.0
0.0 -8.904156894054124e-11 0.0
0.0 -9.507467931459939e-11 0.0
0.0 -1.0093232221538924e-10 0.0
0.0 -1.0691196351804035e-10 0.0
0.0 -1.1287452294923099e-10 0.0
0.0 -1.1871649856919806e-10 0.0
0.0 -1.2481970647020132e-10 0.0
0.0 -1.3055317913387632e-10 0.0
0.0 -1.3669976164795527e-10 0.0
0.0 -1.424777099404226e-10 0.0
0.0 -1.4848603972299403e-10 0.0
0.0 -1.544812140964808e-10 0.0
0.0 -1.6022910939878193e-10 0.0
0.0 -1.6648649825230262e-10 0.0
0.0 -1.7206729922380145e-10 0.0
0.0 -1.784837668449242e-10 0.0
0.0 -1.8416585059531645e-10 0.0
0.0 -1.8927616747063016e-10 0.0
0.0 -1.8636504556219635e-10 0.0
0.0 -1.429810003213678e-10 0.0
0.0 7.173430413311194e-11 0.0
0.0 9.345563001030925e-10 0.0
0.0 3.997759329311959e-09 0.0
0.0 1.3931732061361604e-08 0.0
0.0 4.3706994079628396e-08 0.0
0.0 1.2684287026757776e-07 0.0
0.0 3.441026678390975e-07 0.0
0.0 8.772516450445575e-07 0.0
0.0 2.1085278761596082e-06 0.0
0.0 4.788411791975004e-06 0.0
0.0 1.0289858040360305e-05 0.0
0.0 2.0944736752365267e-05 0.0
0.0 4.0408451974757917e-05 0.0
0.0 7.391961358874381e-05 0.0
0.0 0.00012823162100254282 0.0
0.0 0.00021093994828064858 0.0
0.0 0.00032898712862919593 0.0
0.0 0.00048636651327507014 0.0
0.0 0.0006814707232578028 0.0
0.0 0.0009050168857152473 0.0
0.0 0.0011397581180898097 0.0
0.0 0.001362937403171949 0.0
0.0 0.0015514936588298775 0.0
0.0 0.0016886226843030507 0.0
0.0 0.0017691182934960654 0.0
0.0 0.0018008394875374855 0.0
0.0 0.0018011263283726207 0.0
0.0 0.0017895255137566671 0.0
0.0 0.0017803528514291522 0.0
0.0 0.0017788588696979154 0.0
0.0 0.0017826125348286343 0.0
0.0 0.0017864514059404962 0.0
0.0 0.0017872735350184569 0.0
0.0 0.0017856352589361076 0.0
0.0 0.0017839684726835222 0.0
0.0 0.0017838272301940294 0.0
0.0 0.0017847781037165567 0.0
0.0 0.001785470503540396 0.0
0.0 0.001785273778639354 0.0
0.0 0.0017847043362320641 0.0
0.0 0.0017845212205100222 0.0
0.0 0.001784809737337964 0.0
0.0 0.0017850789804065472 0.0
0.0 0.0017850069863389112 0.0
0.0 0.0017847866696355148 0.0
0.0 0.0017847443021806976 0.0
0.0 0.0017848842745500503 0.0
0.0 0.0017849670059050197 0.0
0.0 0.0017848946071807835 0.0
0.0 0.0017848106437444275 0.0
0.0 0.0017848384290379705 0.0
0.0 0.0017849083554022723 0.0
0.0 0.0017849056526933129 0.0
0.0 0.001784852585457018 0.0
0.0 0.0017848433068809262 0.0
0.0 0.0017848817965476203 0.0
0.0 0.0017848954479257487 0.0
0.0 0.0017848679666852788 0.0
0.0 0.0017848538929656405 0.0
0.0 0.0017848736582161263 0.0
0.0 0.0017848863757049746 0.0
0.0 0.0017848718022526078 0.0
0.0 0.001784861085719557 0.0
0.0 0.0017848722548625949 0.0
0.0 0.0017848808820877808 0.0
0.0 0.0017848719442243419 0.0
0.0 0.0017848652831242825 0.0
0.0 0.0017848727317665413 0.0
0.0 0.001784877639582413 0.0
0.0 0.0017848712490066295 0.0
0.0 0.001784867886577062 0.0
0.0 0.0017848734603537156 0.0
0.0 0.0017848754808286388 0.0
0.0 0.0017848706329082645 0.0
0.0 0.0017848697673867673 0.0
0.0 0.0017848739088673544 0.0
0.0 0.0017848738210554673 0.0
0.0 0.0017848704176475886 0.0
0.0 0.0017848712612508956 0.0
0.0 0.0017848738905537392 0.0
0.0 0.0017848725142470268 0.0
0.0 0.00178487069597842 0.0
0.0 0.0017848723705705075 0.0
0.0 0.0017848733948587472 0.0
0.0 0.0017848716676664748 0.0
0.0 0.0017848713741101996 0.0
0.0 0.0017848729378908625 0.0
0.0 0.0017848726300360334 0.0
0.0 0.0017848714189918475 0.0
0.0 0.0017848721512566273 0.0
0.0 0.0017848728919754285 0.0
0.0 0.001784871965387839 0.0
0.0 0.001784871728858321 0.0
0.0 0.0017848726267428755 0.0
0.0 0.0017848724298020035 0.0
0.0 0.0017848717502210666 0.0
0.0 0.0017848722456005426 0.0
0.0 0.0017848725937365322 0.0
0.0 0.001784871991918188 0.0
0.0 0.00178487200303836 0.0
0.0 0.0017848725209795209 0.0
0.0 0.0017848722345420692 0.0
0.0 0.0017848719457512748 0.0
0.0 0.0017848723570399047 0.0
0.0 0.001784872377142823 0.0
0.0 0.0017848720091021223 0.0
0.0 0.0017848722104727495 0.0
0.0 0.0017848724152191215 0.0
0.0 0.0017848721135206266 0.0
0.0 0.0017848721244872665 0.0
0.0 0.0017848723868800717 0.0
0.0 0.0017848722067611699 0.0
0.0 0.0017848720976595654 0.0
0.0 0.0017848723320313372 0.0
0.0 0.0017848722691997678 0.0
0.0 0.001784872109539507 0.0
0.0 0.00178487227745181 0.0
0.0 0.0017848723014398347 0.0
0.0 0.0017848721387730023 0.0
0.0 0.0017848722357290201 0.0
0.0 0.0017848723120306982 0.0
0.0 0.0017848721705543069 0.0
0.0 0.0017848722096694095 0.0
0.0 0.0017848723101823235 0.0
0.0 0.0017848721970984281 0.0
0.0 0.001784872197537269 0.0
0.0 0.0017848723021324008 0.0
0.0 0.0017848722166006175 0.0
0.0 0.0017848721951769426 0.0
0.0 0.0017848722920905977 0.0
0.0 0.001784872229605945 0.0
0.0 0.0017848721989532576 0.0
0.0 0.001784872281772803 0.0
0.0 0.001784872238425949 0.0
0.0 0.0017848722051087204 0.0
0.0 0.0017848722727473556 0.0
0.0 0.0017848722443997889 0.0
0.0 0.0017848722116670462 0.0
0.0 0.001784872265322013 0.0
0.0 0.0017848722490143819 0.0
0.0 0.0017848722168660356 0.0
0.0 0.0017848722603231366 0.0
0.0 0.0017848722522791924 0.0
0.0 0.0017848722206363905 0.0
0.0 0.0017848722574958483 0.0
0.0 0.0017848722545424605 0.0
0.0 0.00178487222279453 0.0
0.0 0.0017848722570262797 0.0
0.0 0.0017848722552613909 0.0
0.0 0.0017848722242421215 0.0
0.0 0.0017848722581228357 0.0
0.0 0.0017848722546434438 0.0
0.0 0.0017848722253138278 0.0
0.0 0.00178487226046867 0.0
0.0 0.001784872252430517 0.0
0.0 0.0017848722268817346 0.0
0.0 0.0017848722630760584 0.0
0.0 0.0017848722491497426 0.0
0.0 0.0017848722290424016 0.0
0.0 0.001784872265571912 0.0
0.0 0.0017848722449234921 0.0
0.0 0.001784872232198293 0.0
0.0 0.001784872267186937 0.0
0.0 0.0017848722404712304 0.0
0.0 0.0017848722360164866 0.0
0.0 0.0017848722360164846 0.0
0.0 0.0017848722404712302 0.0
0.0 0.0017848722671869339 0.0
0.0 0.0017848722321983058 0.0
0.0 0.0017848722449234785 0.0
0.0 0.0017848722655719115 0.0
0.0 0.0017848722290424023 0.0
0.0 0.0017848722491497378 0.0
0.0 0.0017848722630760482 0.0
0.0 0.0017848722268817376 0.0
0.0 0.001784872252430525 0.0
0.0 0.0017848722604686775 0.0
0.0 0.0017848722253138347 0.0
0.0 0.0017848722546434416 0.0
0.0 0.0017848722581228346 0.0
0.0 0.0017848722242421013 0.0
0.0 0.0017848722552613687 0.0
0.0 0.0017848722570262818 0.0
0.0 0.0017848722227945348 0.0
0.0 0.001784872254542457 0.0
0.0 0.0017848722574958526 0.0
0.0 0.001784872220636391 0.0
0.0 0.001784872252279175 0.0
0.0 0.0017848722603231273 0.0
0.0 0.0017848722168660278 0.0
0.0 0.0017848722490143882 0.0
0.0 0.001784872265322019 0.0
0.0 0.0017848722116670305 0.0
0.0 0.0017848722443997884 0.0
0.0 0.0017848722727473551 0.0
0.0 0.0017848722051087276 0.0
0.0 0.001784872238425955 0.0
0.0 0.0017848722817728005 0.0
0.0 0.0017848721989532637 0.0
0.0 0.0017848722296059574 0.0
0.0 0.0017848722920905935 0.0
0.0 0.0017848721951769521 0.0
0.0 0.0017848722166006277 0.0
0.0 0.0017848723021324 0.0
0.0 0.001784872197537271 0.0
0.0 0.001784872197098411 0.0
0.0 0.0017848723101823306 0.0
0.0 0.001784872209669407 0.0
0.0 0.0017848721705543095 0.0
0.0 0.0017848723120306902 0.0
0.0 0.00178487223572901 0.0
0.0 0.0017848721387729834 0.0
0.0 0.0017848723014398321 0.0
0.0 0.0017848722774518112 0.0
0.0 0.0017848721095395134 0.0
0.0 0.0017848722691997695 0.0
0.0 0.00178487233203133 0.0
0.0 0.0017848720976595673 0.0
0.0 0.0017848722067611686 0.0
0.0 0.0017848723868800786 0.0
0.0 0.0017848721244872585 0.0
0.0 0.0017848721135206172 0.0
0.0 0.0017848724152191128 0.0
0.0 0.0017848722104727426 0.0
0.0 0.0017848720091021139 0.0
0.0 0.0017848723771428363 0.0
0.0 0.0017848723570399007 0.0
0.0 0.001784871945751294 0.0
0.0 0.001784872234542062 0.0
0.0 0.0017848725209795083 0.0
0.0 0.0017848720030383897 0.0
0.0 0.0017848719919181801 0.0
0.0 0.0017848725937365437 0.0
0.0 0.0017848722456005473 0.0
0.0 0.001784871750221067 0.0
0.0 0.001784872429802 0.0
0.0 0.0017848726267428862 0.0
0.0 0.0017848717288583367 0.0
0.0 0.0017848719653878336 0.0
0.0 0.0017848728919754278 0.0
0.0 0.0017848721512566178 0.0
0.0 0.0017848714189918399 0.0
0.0 0.001784872630036034 0.0
0.0 0.0017848729378908746 0.0
0.0 0.0017848713741102072 0.0
0.0 0.0017848716676664887 0.0
0.0 0.0017848733948587592 0.0
0.0 0.0017848723705705073 0.0
0.0 0.0017848706959784312 0.0
0.0 0.001784872514247018 0.0
0.0 0.0017848738905537535 0.0
0.0 0.0017848712612509 0.0
0.0 0.0017848704176475782 0.0
0.0 0.0017848738210554677 0.0
0.0 0.0017848739088673462 0.0
0.0 0.0017848697673867584 0.0
0.0 0.001784870632908263 0.0
0.0 0.001784875480828657 0.0
0.0 0.0017848734603537124 0.0
0.0 0.0017848678865770497 0.0
0.0 0.001784871249006637 0.0
0.0 0.0017848776395824391 0.0
0.0 0.0017848727317665608 0.0
0.0 0.0017848652831242789 0.0
0.0 0.0017848719442243334 0.0
0.0 0.0017848808820877724 0.0
0.0 0.0017848722548625927 0.0
0.0 0.0017848610857195545 0.0
0.0 0.0017848718022526072 0.0
0.0 0.0017848863757049767 0.0
0.0 0.001784873658216131 0.0
0.0 0.0017848538929656488 0.0
0.0 0.0017848679666852807 0.0
0.0 0.0017848954479257537 0.0
0.0 0.0017848817965476333 0.0
0.0 0.001784843306880915 0.0
0.0 0.0017848525854570136 0.0
0.0 0.0017849056526933176 0.0
0.0 0.0017849083554022781 0.0
0.0 0.0017848384290379887 0.0
0.0 0.0017848106437444195 0.0
0.0 0.0017848946071807518 0.0
0.0 0.00178496700590502 0.0
0.0 0.0017848842745500793 0.0
0.0 0.0017847443021807106 0.0
0.0 0.001784786669635492 0.0
0.0 0.0017850069863388665 0.0
0.0 0.0017850789804065592 0.0
0.0 0.0017848097373380294 0.0
0.0 0.0017845212205100415 0.0
0.0 0.0017847043362319906 0.0
0.0 0.0017852737786392607 0.0
0.0 0.0017854705035404484 0.0
0.0 0.0017847781037166998 0.0
0.0 0.0017838272301941242 0.0
0.0 0.0017839684726833644 0.0
0.0 0.001785635258935804 0.0
0.0 0.0017872735350183751 0.0
0.0 0.0017864514059408533 0.0
0.0 0.0017826125348292612 0.0
0.0 0.001778858869698178 0.0
0.0 0.001780352851428435 0.0
0.0 0.001789525513755139 0.0
0.0 0.0018011263283715534 0.0
0.0 0.0018008394875390437 0.0
0.0 0.0017691182935024915 0.0
0.0 0.0016886226843156763 0.0
0.0 0.0015514936588485449 0.0
0.0 0.0013629374031950369 0.0
0.0 0.0011397581181148075 0.0
0.0 0.0009050168857395107 0.0
0.0 0.0006814707232792562 0.0
0.0 0.0004863665132925021 0.0
0.0 0.0003289871286423178 0.0
0.0 0.00021093994828984573 0.0
0.0 0.0001282316210085674 0.0
0.0 7.39196135924413e-05 0.0
0.0 4.040845197689021e-05 0.0
0.0 2.0944736753521165e-05 0.0
0.0 1.0289858040950162e-05 0.0
0.0 4.7884117922585655e-06 0.0
0.0 2.108527876287943e-06 0.0
0.0 8.772516450992101e-07 0.0
0.0 3.4410266786096405e-07 0.0
0.0 1.268428702757802e-07 0.0
0.0 4.370699408250405e-08 0.0
0.0 1.393173206229148e-08 0.0
0.0 3.997759329582209e-09 0.0
0.0 9.345563001617707e-10 0.0
0.0 7.1734304132737e-11 0.0
0.0 -1.4298100032576305e-10 0.0
0.0 -1.863650455616017e-10 0.0
0.0 -1.8927616747016239e-10 0.0
0.0 -1.84165850599229e-10 0.0
0.0 -1.7848376684438106e-10 0.0
0.0 -1.720672992133217e-10 0.0
0.0 -1.664864982520235e-10 0.0
0.0 -1.6022910940949144e-10 0.0
0.0 -1.5448121409559055e-10 0.0
0.0 -1.4848603971384158e-10 0.0
0.0 -1.4247770993637238e-10 0.0
0.0 -1.366997616501877e-10 0.0
0.0 -1.3055317913759013e-10 0.0
0.0 -1.2481970646652546e-10 0.0
0.0 -1.1871649856343478e-10 0.0
0.0 -1.1287452295337544e-10 0.0
0.0 -1.0691196352360617e-10 0.0
0.0 -1.0093232221285874e-10 0.0
0.0 -9.507467931339155e-11 0.0
0.0 -8.904156894727176e-11 0.0
0.0 -8.318104402978617e-11 0.0
0.0 -7.719870494961347e-11 0.0
0.0 -7.125814017594156e-11 0.0
0.0 -6.536143545470433e-11 0.0
0.0 -5.935263828057998e-11 0.0
0.0 -5.3489599855195665e-11 0.0
0.0 -4.7489540504274235e-11 0.0
0.0 -4.1578085910912597e-11 0.0
0.0 -3.565396939743176e-11 0.0
0.0 -2.965747276414613e-11 0.0
0.0 -2.3807189941479576e-11 0.0
0.0 -1.776564090116666e-11 0.0
0.0 -1.1920719876636262e-11 0.0
0.0 -5.9154575986706866e-12 0.0
0.0 -5.915457597492325e-12 0.0
0.0 -1.1920719875279302e-11 0.0
0.0 -1.776564089782855e-11 0.0
0.0 -2.380718993603247e-11 0.0
0.0 -2.965747276057375e-11 0.0
0.0 -3.565396939626398e-11 0.0
0.0 -4.157808590948725e-11 0.0
0.0 -4.748954050698256e-11 0.0
0.0 -5.34895998620086e-11 0.0
0.0 -5.935263827822578e-11 0.0
0.0 -6.536143544469301e-11 0.0
0.0 -7.12581401713166e-11 0.0
0.0 -7.719870494713695e-11 0.0
0.0 -8.318104402575994e-11 0.0
0.0 -8.904156894908436e-11 0.0
0.0 -9.507467932261779e-11 0.0
0.0 -1.0093232221909765e-10 0.0
0.0 -1.0691196351622309e-10 0.0
0.0 -1.1287452294308796e-10 0.0
0.0 -1.1871649856484919e-10 0.0
0.0 -1.248197064693048e-10 0.0
0.0 -1.3055317913273872e-10 0.0
0.0 -1.3669976164619253e-10 0.0
0.0 -1.424777099389628e-10 0.0
0.0 -1.4848603971980584e-10 0.0
0.0 -1.5448121409761376e-10 0.0
0.0 -1.602291094093321e-10 0.0
0.0 -1.6648649826238398e-10 0.0
0.0 -1.720672992266499e-10 0.0
0.0 -1.78483766841504e-10 0.0
0.0 -1.8416585058975392e-10 0.0
0.0 -1.892761674711844e-10 0.0
0.0 -1.8636504556823844e-10 0.0
0.0 -1.429810003270599e-10 0.0
0.0 7.173430412388596e-11 0.0
0.0 9.34556300090254e-10 0.0
0.0 3.997759329308655e-09 0.0
0.0 1.3931732061366385e-08 0.0
0.0 4.3706994079631414e-08 0.0
0.0 1.268428702675827e-07 0.0
0.0 3.4410266783909726e-07 0.0
0.0 8.772516450445397e-07 0.0
0.0 2.1085278761595866e-06 0.0
0.0 4.788411791974965e-06 0.0
0.0 1.0289858040360313e-05 0.0
0.0 2.0944736752365114e-05 0.0
0.0 4.040845197475808e-05 0.0
0.0 7.391961358874357e-05 0.0
0.0 0.00012823162100254263 0.0
0.0 0.00021093994828064858 0.0
0.0 0.0003289871286291958 0.0
0.0 0.0004863665132750708 0.0
0.0 0.0006814707232578056 0.0
0.0 0.0009050168857152439 0.0
0.0 0.001139758118089807 0.0
0.0 0.0013629374031719481 0.0
0.0 0.0015514936588298797 0.0
0.0 0.0016886226843030494 0.0
0.0 0.0017691182934960593 0.0
0.0 0.0018008394875374761 0.0
0.0 0.0018011263283726254 0.0
0.0 0.0017895255137566775 0.0
0.0 0.0017803528514291614 0.0
0.0 0.001778858869697927 0.0
0.0 0.0017826125348286315 0.0
0.0 0.0017864514059405003 0.0
0.0 0.0017872735350184744 0.0
0.0 0.0017856352589361007 0.0
0.0 0.0017839684726835062 0.0
0.0 0.0017838272301940327 0.0
0.0 0.0017847781037165524 0.0
0.0 0.0017854705035404098 0.0
0.0 0.0017852737786393554 0.0
0.0 0.0017847043362320624 0.0
0.0 0.0017845212205100203 0.0
0.0 0.0017848097373379642 0.0
0.0 0.0017850789804065425 0.0
0.0 0.0017850069863389038 0.0
0.0 0.001784786669635526 0.0
0.0 0.0017847443021806932 0.0
0.0 0.0017848842745500572 0.0
0.0 0.0017849670059050231 0.0
0.0 0.0017848946071807742 0.0
0.0 0.00178481064374443 0.0
0.0 0.001784838429037978 0.0
0.0 0.001784908355402261 0.0
0.0 0.0017849056526933202 0.0
0.0 0.0017848525854570261 0.0
0.0 0.0017848433068809175 0.0
0.0 0.001784881796547623 0.0
0.0 0.0017848954479257454 0.0
0.0 0.0017848679666852814 0.0
0.0 0.0017848538929656388 0.0
0.0 0.0017848736582161283 0.0
0.0 0.001784886375704974 0.0
0.0 0.001784871802252606 0.0
0.0 0.0017848610857195536 0.0
0.0 0.0017848722548625964 0.0
0.0 0.0017848808820877867 0.0
0.0 0.001784871944224353 0.0
0.0 0.0017848652831242856 0.0
0.0 0.0017848727317665578 0.0
0.0 0.001784877639582434 0.0
0.0 0.0017848712490066265 0.0
0.0 0.0017848678865770512 0.0
0.0 0.0017848734603537165 0.0
0.0 0.0017848754808286532 0.0
0.0 0.0017848706329082595 0.0
0.0 0.0017848697673867608 0.0
0.0 0.0017848739088673518 0.0
0.0 0.0017848738210554781 0.0
0.0 0.0017848704176475774 0.0
0.0 0.0017848712612508948 0.0
0.0 0.0017848738905537423 0.0
0.0 0.001784872514247021 0.0
0.0 0.0017848706959784281 0.0
0.0 0.0017848723705705186 0.0
0.0 0.001784873394858748 0.0
0.0 0.0017848716676664793 0.0
0.0 0.0017848713741101963 0.0
0.0 0.0017848729378908685 0.0
0.0 0.0017848726300360304 0.0
0.0 0.0017848714189918446 0.0
0.0 0.0017848721512566117 0.0
0.0 0.0017848728919754291 0.0
0.0 0.0017848719653878373 0.0
0.0 0.0017848717288583428 0.0
0.0 0.0017848726267428905 0.0
0.0 0.0017848724298020057 0.0
0.0 0.0017848717502210753 0.0
0.0 0.0017848722456005445 0.0
0.0 0.00178487259373654 0.0
0.0 0.0017848719919181895 0.0
0.0 0.0017848720030383797 0.0
0.0 0.001784872520979502 0.0
0.0 0.001784872234542057 0.0
0.0 0.0017848719457512919 0.0
0.0 0.0017848723570398942 0.0
0.0 0.0017848723771428264 0.0
0.0 0.0017848720091021154 0.0
0.0 0.0017848722104727346 0.0
0.0 0.0017848724152191072 0.0
0.0 0.0017848721135206092 0.0
0.0 0.0017848721244872574 0.0
0.0 0.0017848723868800695 0.0
0.0 0.0017848722067611588 0.0
0.0 0.0017848720976595693 0.0
0.0 0.0017848723320313348 0.0
0.0 0.0017848722691997656 0.0
0.0 0.0017848721095395043 0.0
0.0 0.0017848722774517999 0.0
0.0 0.0017848723014398207 0.0
0.0 0.0017848721387729903 0.0
0.0 0.0017848722357290154 0.0
0.0 0.0017848723120307032 0.0
0.0 0.001784872170554299 0.0
0.0 0.0017848722096693943 0.0
0.0 0.0017848723101823354 0.0
0.0 0.0017848721970984136 0.0
0.0 0.0017848721975372694 0.0
0.0 0.0017848723021324149 0.0
0.0 0.0017848722166006275 0.0
0.0 0.0017848721951769493 0.0
0.0 0.0017848722920905924 0.0
0.0 0.001784872229605947 0.0
0.0 0.0017848721989532517 0.0
0.0 0.001784872281772782 0.0
0.0 0.001784872238425944 0.0
0.0 0.0017848722051087226 0.0
0.0 0.001784872272747364 0.0
0.0 0.001784872244399785 0.0
0.0 0.001784872211667038 0.0
0.0 0.001784872265322018 0.0
0.0 0.0017848722490143934 0.0
0.0 0.0017848722168660246 0.0
0.0 0.0017848722603231266 0.0
0.0 0.0017848722522791779 0.0
0.0 0.001784872220636403 0.0
0.0 0.0017848722574958609 0.0
0.0 0.00178487225454246 0.0
0.0 0.0017848722227945314 0.0
0.0 0.0017848722570262847 0.0
0.0 0.0017848722552613787 0.0
0.0 0.0017848722242421098 0.0
0.0 0.0017848722581228329 0.0
0.0 0.0017848722546434466 0.0
0.0 0.001784872225313835 0.0
0.0 0.0017848722604686753 0.0
0.0 0.0017848722524305219 0.0
0.0 0.001784872226881737 0.0
0.0 0.0017848722630760656 0.0
0.0 0.0017848722491497404 0.0
0.0 0.0017848722290424092 0.0
0.0 0.001784872265571921 0.0
0.0 0.0017848722449234793 0.0
0.0 0.0017848722321983101 0.0
0.0 0.0017848722671869272 0.0
0.0 0.0017848722404712255 0.0
0.0 0.001784872236016489 0.0
0.0 0.0017848722360164818 0.0
0.0 0.0017848722404712276 0.0
0.0 0.0017848722671869378 0.0
0.0 0.0017848722321982921 0.0
0.0 0.0017848722449234915 0.0
0.0 0.0017848722655719176 0.0
0.0 0.0017848722290424055 0.0
0.0 0.0017848722491497447 0.0
0.0 0.0017848722630760558 0.0
0.0 0.0017848722268817428 0.0
0.0 0.0017848722524305232 0.0
0.0 0.0017848722604686632 0.0
0.0 0.0017848722253138393 0.0
0.0 0.0017848722546434388 0.0
0.0 0.001784872258122832 0.0
0.0 0.0017848722242421117 0.0
0.0 0.0017848722552613863 0.0
0.0 0.0017848722570262781 0.0
0.0 0.0017848722227945249 0.0
0.0 0.0017848722545424584 0.0
0.0 0.0017848722574958533 0.0
0.0 0.0017848722206363968 0.0
0.0 0.0017848722522791746 0.0
0.0 0.001784872260323133 0.0
0.0 0.0017848722168660315 0.0
0.0 0.0017848722490143812 0.0
0.0 0.001784872265322016 0.0
0.0 0.0017848722116670527 0.0
0.0 0.0017848722443997947 0.0
0.0 0.0017848722727473495 0.0
0.0 0.0017848722051087267 0.0
0.0 0.0017848722384259472 0.0
0.0 0.0017848722817728022 0.0
0.0 0.0017848721989532463 0.0
0.0 0.001784872229605945 0.0
0.0 0.0017848722920905977 0.0
0.0 0.0017848721951769385 0.0
0.0 0.0017848722166006184 0.0
0.0 0.0017848723021324125 0.0
0.0 0.0017848721975372637 0.0
0.0 0.0017848721970984169 0.0
0.0 0.0017848723101823198 0.0
0.0 0.0017848722096694006 0.0
0.0 0.001784872170554312 0.0
0.0 0.0017848723120306984 0.0
0.0 0.001784872235729035 0.0
0.0 0.0017848721387730012 0.0
0.0 0.0017848723014398354 0.0
0.0 0.0017848722774518044 0.0
0.0 0.001784872109539502 0.0
0.0 0.0017848722691997723 0.0
0.0 0.0017848723320313478 0.0
0.0 0.001784872097659567 0.0
0.0 0.001784872206761161 0.0
0.0 0.0017848723868800665 0.0
0.0 0.0017848721244872493 0.0
0.0 0.001784872113520616 0.0
0.0 0.0017848724152191163 0.0
0.0 0.001784872210472741 0.0
0.0 0.0017848720091021189 0.0