# vtk DataFile Version 2.0
data_668
ASCII
DATASET UNSTRUCTURED_GRID
POINTS 804 float
0.0 0.0 0.0
0.1 0.0 0.0
0.1 20.0 0.0
0.0 20.0 0.0
0.0 0.0 -0.1
0.1 0.0 -0.1
0.1 20.0 -0.1
0.0 20.0 -0.1
0.1 0.09999999999992462 0.0
0.1 0.1999999999998517 0.0
0.1 0.2999999999997818 0.0
0.1 0.399999999999712 0.0
0.1 0.4999999999996377 0.0
0.1 0.5999999999995541 0.0
0.1 0.6999999999994495 0.0
0.1 0.7999999999993355 0.0
0.1 0.8999999999992101 0.0
0.1 0.999999999999102 0.0
0.1 1.099999999999006 0.0
0.1 1.199999999998936 0.0
0.1 1.299999999998867 0.0
0.1 1.399999999998797 0.0
0.1 1.499999999998727 0.0
0.1 1.599999999998657 0.0
0.1 1.699999999998587 0.0
0.1 1.799999999998517 0.0
0.1 1.899999999998447 0.0
0.1 1.999999999998378 0.0
0.1 2.099999999998308 0.0
0.1 2.199999999998238 0.0
0.1 2.299999999998168 0.0
0.1 2.399999999998067 0.0
0.1 2.499999999997942 0.0
0.1 2.599999999997706 0.0
0.1 2.699999999997444 0.0
0.1 2.799999999997153 0.0
0.1 2.899999999996861 0.0
0.1 2.999999999996569 0.0
0.1 3.099999999996277 0.0
0.1 3.199999999995984 0.0
0.1 3.299999999995693 0.0
0.1 3.399999999995401 0.0
0.1 3.499999999995108 0.0
0.1 3.599999999994816 0.0
0.1 3.699999999994525 0.0
0.1 3.799999999994232 0.0
0.1 3.89999999999394 0.0
0.1 3.999999999993648 0.0
0.1 4.099999999993356 0.0
0.1 4.199999999993064 0.0
0.1 4.299999999992772 0.0
0.1 4.399999999992479 0.0
0.1 4.499999999992188 0.0
0.1 4.599999999991895 0.0
0.1 4.699999999991603 0.0
0.1 4.799999999991311 0.0
0.1 4.899999999991019 0.0
0.1 4.999999999990727 0.0
0.1 5.099999999990436 0.0
0.1 5.199999999990144 0.0
0.1 5.299999999989851 0.0
0.1 5.399999999989559 0.0
0.1 5.499999999989267 0.0
0.1 5.599999999988975 0.0
0.1 5.699999999988683 0.0
0.1 5.799999999988391 0.0
0.1 5.899999999988099 0.0
0.1 5.999999999987806 0.0
0.1 6.099999999987515 0.0
0.1 6.199999999987222 0.0
0.1 6.299999999986929 0.0
0.1 6.399999999986638 0.0
0.1 6.499999999986345 0.0
0.1 6.599999999986054 0.0
0.1 6.699999999985762 0.0
0.1 6.79999999998547 0.0
0.1 6.899999999985177 0.0
0.1 6.999999999984885 0.0
0.1 7.099999999984593 0.0
0.1 7.199999999984302 0.0
0.1 7.299999999984009 0.0
0.1 7.399999999983717 0.0
0.1 7.499999999983426 0.0
0.1 7.599999999983132 0.0
0.1 7.699999999982841 0.0
0.1 7.799999999982549 0.0
0.1 7.899999999982256 0.0
0.1 7.999999999982034 0.0
0.1 8.099999999981964 0.0
0.1 8.199999999982062 0.0
0.1 8.299999999982214 0.0
0.1 8.399999999982366 0.0
0.1 8.499999999982517 0.0
0.1 8.59999999998267 0.0
0.1 8.699999999982822 0.0
0.1 8.799999999982973 0.0
0.1 8.899999999983125 0.0
0.1 8.999999999983277 0.0
0.1 9.09999999998343 0.0
0.1 9.19999999998358 0.0
0.1 9.299999999983733 0.0
0.1 9.399999999983885 0.0
0.1 9.499999999984038 0.0
0.1 9.599999999984188 0.0
0.1 9.69999999998434 0.0
0.1 9.799999999984493 0.0
0.1 9.899999999984646 0.0
0.1 9.999999999984798 0.0
0.1 10.09999999998495 0.0
0.1 10.1999999999851 0.0
0.1 10.29999999998525 0.0
0.1 10.39999999998541 0.0
0.1 10.49999999998556 0.0
0.1 10.59999999998571 0.0
0.1 10.69999999998586 0.0
0.1 10.79999999998601 0.0
0.1 10.89999999998616 0.0
0.1 10.99999999998632 0.0
0.1 11.09999999998647 0.0
0.1 11.19999999998662 0.0
0.1 11.29999999998677 0.0
0.1 11.39999999998693 0.0
0.1 11.49999999998708 0.0
0.1 11.59999999998723 0.0
0.1 11.69999999998738 0.0
0.1 11.79999999998754 0.0
0.1 11.89999999998769 0.0
0.1 11.99999999998784 0.0
0.1 12.09999999998799 0.0
0.1 12.19999999998814 0.0
0.1 12.2999999999883 0.0
0.1 12.39999999998845 0.0
0.1 12.4999999999886 0.0
0.1 12.59999999998875 0.0
0.1 12.6999999999889 0.0
0.1 12.79999999998905 0.0
0.1 12.89999999998921 0.0
0.1 12.99999999998936 0.0
0.1 13.09999999998951 0.0
0.1 13.19999999998966 0.0
0.1 13.29999999998982 0.0
0.1 13.39999999998997 0.0
0.1 13.49999999999012 0.0
0.1 13.59999999999027 0.0
0.1 13.69999999999042 0.0
0.1 13.79999999999057 0.0
0.1 13.89999999999073 0.0
0.1 13.99999999999088 0.0
0.1 14.09999999999103 0.0
0.1 14.19999999999118 0.0
0.1 14.29999999999134 0.0
0.1 14.39999999999149 0.0
0.1 14.49999999999164 0.0
0.1 14.59999999999179 0.0
0.1 14.69999999999194 0.0
0.1 14.7999999999921 0.0
0.1 14.89999999999225 0.0
0.1 14.9999999999924 0.0
0.1 15.09999999999255 0.0
0.1 15.1999999999927 0.0
0.1 15.29999999999285 0.0
0.1 15.39999999999301 0.0
0.1 15.49999999999316 0.0
0.1 15.59999999999331 0.0
0.1 15.69999999999346 0.0
0.1 15.79999999999362 0.0
0.1 15.89999999999377 0.0
0.1 15.99999999999392 0.0
0.1 16.09999999999407 0.0
0.1 16.19999999999422 0.0
0.1 16.29999999999437 0.0
0.1 16.39999999999453 0.0
0.1 16.49999999999468 0.0
0.1 16.59999999999483 0.0
0.1 16.69999999999498 0.0
0.1 16.79999999999514 0.0
0.1 16.89999999999528 0.0
0.1 16.99999999999544 0.0
0.1 17.09999999999559 0.0
0.1 17.19999999999574 0.0
0.1 17.29999999999589 0.0
0.1 17.39999999999605 0.0
0.1 17.4999999999962 0.0
0.1 17.59999999999635 0.0
0.1 17.6999999999965 0.0
0.1 17.79999999999665 0.0
0.1 17.89999999999681 0.0
0.1 17.99999999999696 0.0
0.1 18.09999999999711 0.0
0.1 18.19999999999726 0.0
0.1 18.29999999999742 0.0
0.1 18.39999999999757 0.0
0.1 18.49999999999772 0.0
0.1 18.59999999999787 0.0
0.1 18.69999999999802 0.0
0.1 18.79999999999818 0.0
0.1 18.89999999999833 0.0
0.1 18.99999999999848 0.0
0.1 19.09999999999863 0.0
0.1 19.19999999999878 0.0
0.1 19.29999999999894 0.0
0.1 19.39999999999909 0.0
0.1 19.49999999999924 0.0
0.1 19.59999999999939 0.0
0.1 19.69999999999955 0.0
0.1 19.7999999999997 0.0
0.1 19.89999999999985 0.0
0.0 19.9 0.0
0.0 19.8 0.0
0.0 19.7 0.0
0.0 19.6 0.0
0.0 19.5 0.0
0.0 19.4 0.0
0.0 19.3 0.0
0.0 19.2 0.0
0.0 19.1 0.0
0.0 19.0 0.0
0.0 18.9 0.0
0.0 18.8 0.0
0.0 18.7 0.0
0.0 18.6 0.0
0.0 18.5 0.0
0.0 18.4 0.0
0.0 18.3 0.0
0.0 18.2 0.0
0.0 18.1 0.0
0.0 18.0 0.0
0.0 17.9 0.0
0.0 17.8 0.0
0.0 17.7 0.0
0.0 17.6 0.0
0.0 17.5 0.0
0.0 17.4 0.0
0.0 17.3 0.0
0.0 17.2 0.0
0.0 17.09999999999999 0.0
0.0 17.0 0.0
0.0 16.9 0.0
0.0 16.8 0.0
0.0 16.7 0.0
0.0 16.59999999999999 0.0
0.0 16.49999999999999 0.0
0.0 16.4 0.0
0.0 16.29999999999999 0.0
0.0 16.2 0.0
0.0 16.09999999999999 0.0
0.0 15.99999999999999 0.0
0.0 15.89999999999999 0.0
0.0 15.79999999999999 0.0
0.0 15.69999999999999 0.0
0.0 15.59999999999999 0.0
0.0 15.49999999999999 0.0
0.0 15.39999999999999 0.0
0.0 15.29999999999999 0.0
0.0 15.19999999999999 0.0
0.0 15.09999999999999 0.0
0.0 14.99999999999999 0.0
0.0 14.89999999999999 0.0
0.0 14.79999999999999 0.0
0.0 14.69999999999999 0.0
0.0 14.59999999999999 0.0
0.0 14.49999999999999 0.0
0.0 14.39999999999999 0.0
0.0 14.29999999999999 0.0
0.0 14.19999999999999 0.0
0.0 14.09999999999999 0.0
0.0 13.99999999999999 0.0
0.0 13.89999999999999 0.0
0.0 13.79999999999999 0.0
0.0 13.69999999999999 0.0
0.0 13.59999999999999 0.0
0.0 13.49999999999999 0.0
0.0 13.39999999999999 0.0
0.0 13.29999999999999 0.0
0.0 13.19999999999999 0.0
0.0 13.09999999999999 0.0
0.0 12.99999999999999 0.0
0.0 12.89999999999999 0.0
0.0 12.79999999999999 0.0
0.0 12.69999999999999 0.0
0.0 12.59999999999999 0.0
0.0 12.49999999999999 0.0
0.0 12.39999999999999 0.0
0.0 12.29999999999999 0.0
0.0 12.19999999999999 0.0
0.0 12.09999999999999 0.0
0.0 11.99999999999999 0.0
0.0 11.89999999999999 0.0
0.0 11.79999999999999 0.0
0.0 11.69999999999999 0.0
0.0 11.59999999999999 0.0
0.0 11.49999999999999 0.0
0.0 11.39999999999999 0.0
0.0 11.29999999999999 0.0
0.0 11.19999999999999 0.0
0.0 11.09999999999999 0.0
0.0 10.99999999999999 0.0
0.0 10.89999999999999 0.0
0.0 10.79999999999999 0.0
0.0 10.69999999999999 0.0
0.0 10.59999999999999 0.0
0.0 10.49999999999999 0.0
0.0 10.39999999999999 0.0
0.0 10.29999999999999 0.0
0.0 10.19999999999999 0.0
0.0 10.09999999999999 0.0
0.0 9.999999999999993 0.0
0.0 9.899999999999993 0.0
0.0 9.799999999999994 0.0
0.0 9.699999999999992 0.0
0.0 9.599999999999993 0.0
0.0 9.499999999999993 0.0
0.0 9.399999999999993 0.0
0.0 9.299999999999995 0.0
0.0 9.199999999999996 0.0
0.0 9.099999999999994 0.0
0.0 8.999999999999995 0.0
0.0 8.899999999999995 0.0
0.0 8.799999999999994 0.0
0.0 8.699999999999994 0.0
0.0 8.599999999999994 0.0
0.0 8.499999999999995 0.0
0.0 8.399999999999995 0.0
0.0 8.299999999999994 0.0
0.0 8.199999999999994 0.0
0.0 8.099999999999994 0.0
0.0 7.999999999999993 0.0
0.0 7.899999999999995 0.0
0.0 7.799999999999995 0.0
0.0 7.699999999999996 0.0
0.0 7.599999999999996 0.0
0.0 7.499999999999996 0.0
0.0 7.399999999999995 0.0
0.0 7.299999999999995 0.0
0.0 7.199999999999996 0.0
0.0 7.099999999999994 0.0
0.0 6.999999999999995 0.0
0.0 6.899999999999995 0.0
0.0 6.799999999999995 0.0
0.0 6.699999999999996 0.0
0.0 6.599999999999994 0.0
0.0 6.499999999999995 0.0
0.0 6.399999999999997 0.0
0.0 6.299999999999997 0.0
0.0 6.199999999999996 0.0
0.0 6.099999999999996 0.0
0.0 5.999999999999996 0.0
0.0 5.899999999999997 0.0
0.0 5.799999999999997 0.0
0.0 5.699999999999996 0.0
0.0 5.599999999999996 0.0
0.0 5.499999999999996 0.0
0.0 5.399999999999995 0.0
0.0 5.299999999999995 0.0
0.0 5.199999999999996 0.0
0.0 5.099999999999996 0.0
0.0 4.999999999999998 0.0
0.0 4.899999999999999 0.0
0.0 4.799999999999997 0.0
0.0 4.699999999999998 0.0
0.0 4.599999999999998 0.0
0.0 4.499999999999996 0.0
0.0 4.399999999999997 0.0
0.0 4.299999999999997 0.0
0.0 4.199999999999998 0.0
0.0 4.099999999999998 0.0
0.0 3.999999999999996 0.0
0.0 3.899999999999999 0.0
0.0 3.799999999999997 0.0
0.0 3.699999999999996 0.0
0.0 3.599999999999998 0.0
0.0 3.5 0.0
0.0 3.399999999999999 0.0
0.0 3.299999999999997 0.0
0.0 3.199999999999999 0.0
0.0 3.099999999999998 0.0
0.0 3.0 0.0
0.0 2.899999999999999 0.0
0.0 2.799999999999997 0.0
0.0 2.699999999999999 0.0
0.0 2.599999999999998 0.0
0.0 2.499999999999996 0.0
0.0 2.399999999999999 0.0
0.0 2.299999999999997 0.0
0.0 2.199999999999999 0.0
0.0 2.100000000000001 0.0
0.0 2.0 0.0
0.0 1.899999999999999 0.0
0.0 1.800000000000001 0.0
0.0 1.699999999999999 0.0
0.0 1.599999999999998 0.0
0.0 1.5 0.0
0.0 1.399999999999999 0.0
0.0 1.299999999999997 0.0
0.0 1.199999999999999 0.0
0.0 1.099999999999998 0.0
0.0 1.0 0.0
0.0 0.8999999999999986 0.0
0.0 0.8000000000000007 0.0
0.0 0.6999999999999993 0.0
0.0 0.6000000000000014 0.0
0.0 0.5 0.0
0.0 0.3999999999999986 0.0
0.0 0.3000000000000007 0.0
0.0 0.1999999999999993 0.0
[...]
POINT_DATA 804
VECTORS displacement double
0.0 0.0 0.0
0.0 0.0 0.0
0.0 0.001785235588050984 0.0
0.0 0.0017852355880510074 0.0
0.0 0.0 0.0
0.0 0.0 0.0
0.0 0.0017852355880509994 0.0
0.0 0.001785235588050985 0.0
0.0 -6.629162012995857e-12 0.0
0.0 -1.0626586864514715e-11 0.0
0.0 -1.9415187272307525e-11 0.0
0.0 -2.2117060981716433e-11 0.0
0.0 -3.109458971696346e-11 0.0
0.0 -3.476367350605761e-11 0.0
0.0 -4.1774524845526234e-11 0.0
0.0 -4.8068817425265176e-11 0.0
0.0 -5.226636971979471e-11 0.0
0.0 -6.10423371906144e-11 0.0
0.0 -6.356569637309836e-11 0.0
0.0 -7.286680674873196e-11 0.0
0.0 -7.615056260427607e-11 0.0
0.0 -8.351071290269135e-11 0.0
0.0 -8.957734682589288e-11 0.0
0.0 -9.38308384142694e-11 0.0
0.0 -1.0272384672368567e-10 0.0
0.0 -1.0500385211245863e-10 0.0
0.0 -1.145950378405012e-10 0.0
0.0 -1.1762900942534995e-10 0.0
0.0 -1.2513235834869516e-10 0.0
0.0 -1.3118536808783058e-10 0.0
0.0 -1.3535205925256095e-10 0.0
0.0 -1.443594798071344e-10 0.0
0.0 -1.465887601135391e-10 0.0
0.0 -1.560921040573937e-10 0.0
0.0 -1.5937668670508776e-10 0.0
0.0 -1.6651457346497373e-10 0.0
0.0 -1.729285840654024e-10 0.0
0.0 -1.7690243440870862e-10 0.0
0.0 -1.857751294229236e-10 0.0
0.0 -1.8856309404342927e-10 0.0
0.0 -1.971010875825407e-10 0.0
0.0 -2.0160206040604637e-10 0.0
0.0 -2.0755156601567826e-10 0.0
0.0 -2.1478131721387637e-10 0.0
0.0 -2.1863180613809493e-10 0.0
0.0 -2.267423941912468e-10 0.0
0.0 -2.3116182684766718e-10 0.0
0.0 -2.3745943683131603e-10 0.0
0.0 -2.4433707814610717e-10 0.0
0.0 -2.4835782236511644e-10 0.0
0.0 -2.5652235316573315e-10 0.0
0.0 -2.6077922438928766e-10 0.0
0.0 -2.6711810407894203e-10 0.0
0.0 -2.743311894509419e-10 0.0
0.0 -2.774641037353006e-10 0.0
0.0 -2.87078461686322e-10 0.0
0.0 -2.895159130547501e-10 0.0
0.0 -2.976800504688486e-10 0.0
0.0 -3.035050190498925e-10 0.0
0.0 -3.0719421519457833e-10 0.0
0.0 -3.173073844651352e-10 0.0
0.0 -3.1821710859003297e-10 0.0
0.0 -3.2865705107169936e-10 0.0
0.0 -3.319211138164291e-10 0.0
0.0 -3.3794002345343807e-10 0.0
0.0 -3.463801953596833e-10 0.0
0.0 -3.480834142089197e-10 0.0
0.0 -3.5858687886031614e-10 0.0
0.0 -3.6115836660930374e-10 0.0
0.0 -3.6817134021225357e-10 0.0
0.0 -3.7561235931172093e-10 0.0
0.0 -3.781601669915088e-10 0.0
0.0 -3.8795719338546446e-10 0.0
0.0 -3.9124843440712975e-10 0.0
0.0 -3.9734478572425687e-10 0.0
0.0 -4.0599538283052576e-10 0.0
0.0 -4.0711399871809394e-10 0.0
0.0 -4.183124661423186e-10 0.0
0.0 -4.205710299710722e-10 0.0
0.0 -4.2703108885072055e-10 0.0
0.0 -4.361157141505353e-10 0.0
0.0 -4.361110544865414e-10 0.0
0.0 -4.488111746961222e-10 0.0
0.0 -4.495754844046964e-10 0.0
0.0 -4.572276552139836e-10 0.0
0.0 -4.654964315578436e-10 0.0
0.0 -4.661082577357268e-10 0.0
0.0 -4.781349831685438e-10 0.0
0.0 -4.801365278581291e-10 0.0
0.0 -4.866773683427924e-10 0.0
0.0 -4.961364402046374e-10 0.0
0.0 -4.862888359578829e-10 0.0
0.0 -4.34687601523285e-10 0.0
0.0 -1.205573482993123e-10 0.0
0.0 1.2031652095134013e-09 0.0
0.0 6.094591844604526e-09 0.0
0.0 2.2478945280776342e-08 0.0
0.0 7.263793936587817e-08 0.0
0.0 2.1475138670861293e-07 0.0
0.0 5.891847393244121e-07 0.0
0.0 1.5103116406983105e-06 0.0
0.0 3.631575212366806e-06 0.0
0.0 8.211608985652725e-06 0.0
0.0 1.749067362208947e-05 0.0
0.0 3.513314064533059e-05 0.0
0.0 6.659773501687351e-05 0.0
0.0 0.00011917596987544444 0.0
0.0 0.0002013476253968735 0.0
0.0 0.00032114073808207086 0.0
0.0 0.00048345647895350506 0.0
0.0 0.0006868590439342412 0.0
0.0 0.0009209877480270294 0.0
0.0 0.0011661552668217397 0.0
0.0 0.0013963917047610725 0.0
0.0 0.0015859270718756033 0.0
0.0 0.001717204579441083 0.0
0.0 0.0017869868697375734 0.0
0.0 0.001807194438094989 0.0
0.0 0.0017993666956915763 0.0
0.0 0.001785158901694823 0.0
0.0 0.001777879953704103 0.0
0.0 0.001779643066595461 0.0
0.0 0.0017850866337077323 0.0
0.0 0.0017882434930535217 0.0
0.0 0.001787370917730425 0.0
0.0 0.001784860984924796 0.0
0.0 0.0017837108892591663 0.0
0.0 0.0017845501259087706 0.0
0.0 0.0017858008442860132 0.0
0.0 0.001785982667863408 0.0
0.0 0.0017852553268077737 0.0
0.0 0.001784751913810019 0.0
0.0 0.0017849974666330594 0.0
0.0 0.001785459043045993 0.0
0.0 0.001785490744306024 0.0
0.0 0.0017851787245413394 0.0
0.0 0.0017850359762929748 0.0
0.0 0.0017852088526989875 0.0
0.0 0.0017853698081732663 0.0
0.0 0.0017852928851775165 0.0
0.0 0.0017851527022356235 0.0
0.0 0.0017851737497782238 0.0
0.0 0.001785283357554671 0.0
0.0 0.001785290445289372 0.0
0.0 0.0017852087629191664 0.0
0.0 0.001785190107924444 0.0
0.0 0.0017852501335643906 0.0
0.0 0.0017852714972989663 0.0
0.0 0.0017852270289602863 0.0
0.0 0.0017852071691356135 0.0
0.0 0.0017852408940315983 0.0
0.0 0.001785257577552261 0.0
0.0 0.0017852311232681097 0.0
0.0 0.001785218119511285 0.0
0.0 0.0017852396253993368 0.0
0.0 0.0017852489462514352 0.0
0.0 0.0017852310053310817 0.0
0.0 0.0017852251247510284 0.0
0.0 0.0017852402410425546 0.0
0.0 0.0017852431075089084 0.0
0.0 0.0017852304219575959 0.0
0.0 0.001785230093494888 0.0
0.0 0.0017852405677313797 0.0
0.0 0.001785238802720594 0.0
0.0 0.0017852304911936446 0.0
0.0 0.001785233907197063 0.0
0.0 0.0017852399740044354 0.0
0.0 0.00178523547502571 0.0
0.0 0.0017852317223819242 0.0
0.0 0.0017852366038559227 0.0
0.0 0.0017852381796772997 0.0
0.0 0.001785233608185108 0.0
0.0 0.0017852338422195899 0.0
0.0 0.0017852375854594477 0.0
0.0 0.001785236041534323 0.0
0.0 0.0017852334391701315 0.0
0.0 0.0017852357810988078 0.0
0.0 0.0017852370756911346 0.0
0.0 0.001785234478290768 0.0
0.0 0.0017852345160295322 0.0
0.0 0.0017852367851607489 0.0
0.0 0.0017852356289981741 0.0
0.0 0.001785234233142153 0.0
0.0 0.0017852359881402181 0.0
0.0 0.0017852362404462184 0.0
0.0 0.0017852345833444768 0.0
0.0 0.0017852353201790315 0.0
0.0 0.0017852362976865472 0.0
0.0 0.0017852351005635916 0.0
0.0 0.0017852349996680308 0.0
0.0 0.001785236052345343 0.0
0.0 0.001785235499125179 0.0
0.0 0.0017852349785027924 0.0
0.0 0.0017852357398142524 0.0
0.0 0.0017852356997439824 0.0
0.0 0.0017852351173658363 0.0
0.0 0.0017852354954708102 0.0
0.0 0.00178523573254181 0.0
0.0 0.0017852353003002127 0.0
0.0 0.0017852353583535775 0.0
0.0 0.001785235665742201 0.0
0.0 0.0017852354555554426 0.0
0.0 0.0017852353217577862 0.0
0.0 0.001785235555720435 0.0
0.0 0.0017852355550848867 0.0
0.0 0.0017852353584053029 0.0
0.0 0.0017852354448299607 0.0
0.0 0.001785235444829954 0.0
0.0 0.0017852353584053085 0.0
0.0 0.0017852355550848859 0.0
0.0 0.0017852355557204148 0.0
0.0 0.0017852353217577765 0.0
0.0 0.001785235455555443 0.0
0.0 0.0017852356657422062 0.0
0.0 0.0017852353583535624 0.0
0.0 0.0017852353003002075 0.0
0.0 0.0017852357325418052 0.0
0.0 0.0017852354954708105 0.0
0.0 0.0017852351173658267 0.0
0.0 0.0017852356997439922 0.0
0.0 0.0017852357398142578 0.0
0.0 0.0017852349785028195 0.0
0.0 0.0017852354991251687 0.0
0.0 0.001785236052345359 0.0
0.0 0.0017852349996680264 0.0
0.0 0.001785235100563567 0.0
0.0 0.0017852362976865561 0.0
0.0 0.0017852353201790344 0.0
0.0 0.0017852345833444722 0.0
0.0 0.0017852362404462128 0.0
0.0 0.0017852359881402077 0.0
0.0 0.001785234233142128 0.0
0.0 0.001785235628998172 0.0
0.0 0.0017852367851607515 0.0
0.0 0.001785234516029549 0.0
0.0 0.0017852344782907522 0.0
0.0 0.0017852370756911342 0.0
0.0 0.0017852357810987933 0.0
0.0 0.0017852334391701566 0.0
0.0 0.0017852360415343202 0.0
0.0 0.0017852375854594572 0.0
0.0 0.001785233842219582 0.0
0.0 0.0017852336081851038 0.0
0.0 0.0017852381796773012 0.0
0.0 0.0017852366038559253 0.0
0.0 0.0017852317223819303 0.0
0.0 0.0017852354750257267 0.0
0.0 0.001785239974004442 0.0
0.0 0.0017852339071970553 0.0
0.0 0.0017852304911936318 0.0
0.0 0.0017852388027205946 0.0
0.0 0.0017852405677313795 0.0
0.0 0.001785230093494882 0.0
0.0 0.0017852304219575959 0.0
0.0 0.00178524310750889 0.0
0.0 0.0017852402410425475 0.0
0.0 0.0017852251247510228 0.0
0.0 0.0017852310053310836 0.0
0.0 0.001785248946251438 0.0
0.0 0.0017852396253993292 0.0
0.0 0.0017852181195112664 0.0
0.0 0.001785231123268098 0.0
0.0 0.0017852575775522633 0.0
0.0 0.0017852408940316096 0.0
0.0 0.0017852071691356163 0.0
0.0 0.0017852270289602941 0.0
0.0 0.0017852714972989572 0.0
0.0 0.0017852501335644 0.0
0.0 0.0017851901079244212 0.0
0.0 0.0017852087629191644 0.0
0.0 0.0017852904452893522 0.0
0.0 0.001785283357554665 0.0
0.0 0.0017851737497782253 0.0
0.0 0.001785152702235612 0.0
0.0 0.0017852928851775022 0.0
0.0 0.0017853698081732742 0.0
0.0 0.0017852088526989958 0.0
0.0 0.0017850359762929787 0.0
0.0 0.001785178724541318 0.0
0.0 0.0017854907443059953 0.0
0.0 0.0017854590430460338 0.0
0.0 0.0017849974666331247 0.0
0.0 0.0017847519138100162 0.0
0.0 0.0017852553268076835 0.0
0.0 0.0017859826678633614 0.0
0.0 0.0017858008442861151 0.0
0.0 0.0017845501259089408 0.0
0.0 0.0017837108892591615 0.0
0.0 0.0017848609849245147 0.0
0.0 0.0017873709177301446 0.0
0.0 0.0017882434930536566 0.0
0.0 0.0017850866337083765 0.0
0.0 0.0017796430665960956 0.0
0.0 0.0017778799537037954 0.0
0.0 0.0017851589016932212 0.0
0.0 0.001799366695689666 0.0
0.0 0.0018071944380952955 0.0
0.0 0.0017869868697433656 0.0
0.0 0.0017172045794550182 0.0
0.0 0.0015859270718985088 0.0
0.0 0.001396391704791586 0.0
0.0 0.0011661552668566885 0.0
0.0 0.0009209877480625513 0.0
0.0 0.0006868590439668706 0.0
0.0 0.00048345647898088024 0.0
0.0 0.00032114073810323996 0.0
0.0 0.0002013476254120498 0.0
0.0 0.00011917596988557201 0.0
0.0 6.659773502318422e-05 0.0
0.0 3.5133140649009716e-05 0.0
0.0 1.749067362410009e-05 0.0
0.0 8.211608986682903e-06 0.0
0.0 3.6315752128620042e-06 0.0
0.0 1.5103116409215732e-06 0.0
0.0 5.891847394186064e-07 0.0
0.0 2.147513867457023e-07 0.0
0.0 7.263793937948006e-08 0.0
0.0 2.24789452853868e-08 0.0
0.0 6.094591846044967e-09 0.0
0.0 1.203165209911851e-09 0.0
0.0 -1.2055734824238311e-10 0.0
0.0 -4.346876015615356e-10 0.0
0.0 -4.862888359670763e-10 0.0
0.0 -4.961364402163464e-10 0.0
0.0 -4.866773683867083e-10 0.0
0.0 -4.801365278423858e-10 0.0
0.0 -4.781349831256867e-10 0.0
0.0 -4.661082577337501e-10 0.0
0.0 -4.654964315333168e-10 0.0
0.0 -4.57227655125672e-10 0.0
0.0 -4.495754843315941e-10 0.0
0.0 -4.4881117469342664e-10 0.0
0.0 -4.3611105448016734e-10 0.0
0.0 -4.361157141140331e-10 0.0
0.0 -4.270310888408057e-10 0.0
0.0 -4.205710300204967e-10 0.0
0.0 -4.183124662052676e-10 0.0
0.0 -4.071139987235094e-10 0.0
0.0 -4.059953827483461e-10 0.0
0.0 -3.9734478563471405e-10 0.0
0.0 -3.9124843439223533e-10 0.0
0.0 -3.8795719343314713e-10 0.0
0.0 -3.781601670505836e-10 0.0
0.0 -3.7561235933127723e-10 0.0
0.0 -3.681713402042613e-10 0.0
0.0 -3.6115836658724744e-10 0.0
0.0 -3.585868788358495e-10 0.0
0.0 -3.4808341419424436e-10 0.0
0.0 -3.4638019534214014e-10 0.0
0.0 -3.3794002340963844e-10 0.0
0.0 -3.3192111378079847e-10 0.0
0.0 -3.286570510654348e-10 0.0
0.0 -3.182171085967826e-10 0.0
0.0 -3.173073844846121e-10 0.0
0.0 -3.071942152232543e-10 0.0
0.0 -3.0350501909852866e-10 0.0
0.0 -2.976800504928686e-10 0.0
0.0 -2.8951591301107834e-10 0.0
0.0 -2.870784616473305e-10 0.0
0.0 -2.774641037237388e-10 0.0
0.0 -2.743311894462427e-10 0.0
0.0 -2.671181040983e-10 0.0
0.0 -2.6077922441497725e-10 0.0
0.0 -2.565223531990103e-10 0.0
0.0 -2.4835782239879236e-10 0.0
0.0 -2.443370781281523e-10 0.0
0.0 -2.374594367854449e-10 0.0
0.0 -2.311618268509334e-10 0.0
0.0 -2.2674239422203304e-10 0.0
0.0 -2.186318061210139e-10 0.0
0.0 -2.1478131717427068e-10 0.0
0.0 -2.0755156600967632e-10 0.0
0.0 -2.0160206041084637e-10 0.0
0.0 -1.9710108756778653e-10 0.0
0.0 -1.885630940273671e-10 0.0
0.0 -1.857751294140758e-10 0.0
0.0 -1.7690243439922688e-10 0.0
0.0 -1.7292858406157166e-10 0.0
0.0 -1.66514573473936e-10 0.0
0.0 -1.593766867166202e-10 0.0
0.0 -1.5609210407224027e-10 0.0
0.0 -1.4658876013218299e-10 0.0
0.0 -1.4435947980597423e-10 0.0
0.0 -1.353520592304171e-10 0.0
0.0 -1.3118536807303276e-10 0.0
0.0 -1.2513235835147094e-10 0.0
0.0 -1.1762900943747665e-10 0.0
0.0 -1.1459503785783128e-10 0.0
0.0 -1.0500385212271465e-10 0.0
0.0 -1.0272384672636262e-10 0.0
0.0 -9.383083842532033e-11 0.0
0.0 -8.957734683731188e-11 0.0
0.0 -8.351071289442037e-11 0.0
0.0 -7.615056257897276e-11 0.0
0.0 -7.286680674133388e-11 0.0
0.0 -6.356569639018434e-11 0.0
0.0 -6.104233719637277e-11 0.0
0.0 -5.2266369717011543e-11 0.0
0.0 -4.806881743671382e-11 0.0
0.0 -4.177452486439295e-11 0.0
0.0 -3.4763673521799546e-11 0.0
0.0 -3.109458971496439e-11 0.0
0.0 -2.211706096683002e-11 0.0
0.0 -1.941518726471301e-11 0.0
0.0 -1.0626586853249054e-11 0.0
0.0 -6.629161998354408e-12 0.0
0.0 -6.629162013315732e-12 0.0
0.0 -1.0626586864753646e-11 0.0
0.0 -1.941518727562801e-11 0.0
0.0 -2.2117060977563582e-11 0.0
0.0 -3.1094589703759254e-11 0.0
0.0 -3.4763673504839196e-11 0.0
0.0 -4.177452485887141e-11 0.0
0.0 -4.806881744556172e-11 0.0
0.0 -5.226636974159863e-11 0.0
0.0 -6.104233719154449e-11 0.0
0.0 -6.356569635967673e-11 0.0
0.0 -7.286680674571739e-11 0.0
0.0 -7.615056259417976e-11 0.0
0.0 -8.351071288125945e-11 0.0
0.0 -8.957734681878638e-11 0.0
0.0 -9.383083841677279e-11 0.0
0.0 -1.0272384673216648e-10 0.0
0.0 -1.0500385212671461e-10 0.0
0.0 -1.1459503784007382e-10 0.0
0.0 -1.176290094067024e-10 0.0
0.0 -1.2513235833408705e-10 0.0
0.0 -1.3118536809014472e-10 0.0
0.0 -1.3535205925675682e-10 0.0
0.0 -1.443594798064848e-10 0.0
0.0 -1.465887601195356e-10 0.0
0.0 -1.560921040548924e-10 0.0
0.0 -1.5937668668007384e-10 0.0
0.0 -1.6651457344014477e-10 0.0
0.0 -1.7292858404971611e-10 0.0
0.0 -1.7690243439902503e-10 0.0
0.0 -1.8577512943279843e-10 0.0
0.0 -1.8856309405718334e-10 0.0
0.0 -1.971010875675406e-10 0.0
0.0 -2.016020603904465e-10 0.0
0.0 -2.0755156603025574e-10 0.0
0.0 -2.147813172409512e-10 0.0
0.0 -2.1863180616360213e-10 0.0
0.0 -2.267423941937465e-10 0.0
0.0 -2.3116182681085063e-10 0.0
0.0 -2.3745943679727833e-10 0.0
0.0 -2.4433707814321566e-10 0.0
0.0 -2.4835782237895817e-10 0.0
0.0 -2.5652235318878114e-10 0.0
0.0 -2.6077922441291695e-10 0.0
0.0 -2.671181040750374e-10 0.0
0.0 -2.7433118941600144e-10 0.0
0.0 -2.774641037068783e-10 0.0
0.0 -2.870784616745406e-10 0.0
0.0 -2.8951591306252675e-10 0.0
0.0 -2.9768005049431276e-10 0.0
0.0 -3.0350501907686986e-10 0.0
0.0 -3.0719421521585574e-10 0.0
0.0 -3.1730738445984067e-10 0.0
0.0 -3.1821710856310157e-10 0.0
0.0 -3.286570510498131e-10 0.0
0.0 -3.319211138224544e-10 0.0
0.0 -3.379400234709803e-10 0.0
0.0 -3.463801953960091e-10 0.0
0.0 -3.48083414284923e-10 0.0
0.0 -3.585868788985445e-10 0.0
0.0 -3.611583665786327e-10 0.0
0.0 -3.68171340184902e-10 0.0
0.0 -3.7561235929959156e-10 0.0
0.0 -3.781601669764004e-10 0.0
0.0 -3.8795719335346244e-10 0.0
0.0 -3.9124843438044366e-10 0.0
0.0 -3.9734478569666693e-10 0.0
0.0 -4.059953828099859e-10 0.0
0.0 -4.071139987375969e-10 0.0
0.0 -4.1831246618867823e-10 0.0
0.0 -4.205710299826248e-10 0.0
0.0 -4.270310888193478e-10 0.0
0.0 -4.361157141525499e-10 0.0
0.0 -4.361110544788063e-10 0.0
0.0 -4.4881117463087844e-10 0.0
0.0 -4.495754843356002e-10 0.0
0.0 -4.5722765518613294e-10 0.0
0.0 -4.6549643155349556e-10 0.0
0.0 -4.661082577426741e-10 0.0
0.0 -4.781349831824576e-10 0.0
0.0 -4.801365278835304e-10 0.0
0.0 -4.866773683294767e-10 0.0
0.0 -4.961364401255504e-10 0.0
0.0 -4.862888359576548e-10 0.0
0.0 -4.346876016338073e-10 0.0
0.0 -1.2055734835634692e-10 0.0
0.0 1.2031652095594958e-09 0.0
0.0 6.094591844652445e-09 0.0
0.0 2.2478945280749224e-08 0.0
0.0 7.263793936587379e-08 0.0
0.0 2.1475138670865864e-07 0.0
0.0 5.891847393243949e-07 0.0
0.0 1.5103116406982792e-06 0.0
0.0 3.6315752123667665e-06 0.0
0.0 8.211608985652792e-06 0.0
0.0 1.749067362208959e-05 0.0
0.0 3.5133140645330815e-05 0.0
0.0 6.659773501687358e-05 0.0
0.0 0.00011917596987544406 0.0
0.0 0.00020134762539687388 0.0
0.0 0.00032114073808207157 0.0
0.0 0.00048345647895350354 0.0
0.0 0.000686859043934242 0.0
0.0 0.000920987748027031 0.0
0.0 0.0011661552668217432 0.0
0.0 0.0013963917047610716 0.0
0.0 0.0015859270718755968 0.0
0.0 0.001717204579441092 0.0
0.0 0.0017869868697375675 0.0
0.0 0.001807194438094985 0.0
0.0 0.001799366695691575 0.0
0.0 0.001785158901694825 0.0
0.0 0.0017778799537040999 0.0
0.0 0.0017796430665954718 0.0
0.0 0.0017850866337077332 0.0
0.0 0.0017882434930535213 0.0
0.0 0.0017873709177304283 0.0
0.0 0.001784860984924786 0.0
0.0 0.0017837108892591615 0.0
0.0 0.0017845501259087777 0.0
0.0 0.0017858008442860134 0.0
0.0 0.0017859826678634195 0.0
0.0 0.0017852553268077709 0.0
0.0 0.0017847519138100222 0.0
0.0 0.0017849974666330642 0.0
0.0 0.0017854590430459987 0.0
0.0 0.0017854907443060203 0.0
0.0 0.0017851787245413541 0.0
0.0 0.0017850359762929706 0.0
0.0 0.0017852088526989717 0.0
0.0 0.001785369808173266 0.0
0.0 0.001785292885177517 0.0
0.0 0.0017851527022356235 0.0
0.0 0.0017851737497782212 0.0
0.0 0.0017852833575546549 0.0
0.0 0.001785290445289367 0.0
0.0 0.0017852087629191696 0.0
0.0 0.0017851901079244123 0.0
0.0 0.0017852501335643917 0.0
0.0 0.0017852714972989613 0.0
0.0 0.0017852270289603043 0.0
0.0 0.001785207169135627 0.0
0.0 0.0017852408940316137 0.0
0.0 0.0017852575775522592 0.0
0.0 0.0017852311232681008 0.0
0.0 0.001785218119511272 0.0
0.0 0.0017852396253993307 0.0
0.0 0.0017852489462514454 0.0
0.0 0.0017852310053310886 0.0
0.0 0.001785225124751016 0.0
0.0 0.0017852402410425542 0.0
0.0 0.0017852431075088895 0.0
0.0 0.0017852304219575972 0.0
0.0 0.0017852300934948823 0.0
0.0 0.001785240567731383 0.0
0.0 0.0017852388027205924 0.0
0.0 0.0017852304911936349 0.0
0.0 0.0017852339071970542 0.0
0.0 0.0017852399740044338 0.0
0.0 0.0017852354750257286 0.0
0.0 0.0017852317223819353 0.0
0.0 0.001785236603855931 0.0
0.0 0.001785238179677302 0.0
0.0 0.0017852336081851116 0.0
0.0 0.0017852338422195716 0.0
0.0 0.0017852375854594483 0.0
0.0 0.001785236041534319 0.0
0.0 0.0017852334391701553 0.0
0.0 0.001785235781098793 0.0
0.0 0.0017852370756911388 0.0
0.0 0.0017852344782907541 0.0
0.0 0.001785234516029551 0.0
0.0 0.0017852367851607445 0.0
0.0 0.0017852356289981713 0.0
0.0 0.0017852342331421364 0.0
0.0 0.0017852359881402088 0.0
0.0 0.0017852362404462156 0.0
0.0 0.0017852345833444718 0.0
0.0 0.001785235320179037 0.0
0.0 0.0017852362976865615 0.0
0.0 0.0017852351005635796 0.0
0.0 0.0017852349996680264 0.0
0.0 0.001785236052345361 0.0
0.0 0.001785235499125177 0.0
0.0 0.0017852349785028093 0.0
0.0 0.001785235739814247 0.0
0.0 0.0017852356997439846 0.0
0.0 0.0017852351173658387 0.0
0.0 0.0017852354954708148 0.0
0.0 0.0017852357325418098 0.0
0.0 0.0017852353003002094 0.0
0.0 0.0017852353583535526 0.0
0.0 0.0017852356657421953 0.0
0.0 0.0017852354555554385 0.0
0.0 0.001785235321757778 0.0
0.0 0.0017852355557204218 0.0
0.0 0.0017852355550848874 0.0
0.0 0.0017852353584053146 0.0
0.0 0.0017852354448299607 0.0
0.0 0.0017852354448299542 0.0
0.0 0.0017852353584053102 0.0
0.0 0.0017852355550848945 0.0
0.0 0.0017852355557204267 0.0
0.0 0.0017852353217577771 0.0
0.0 0.0017852354555554376 0.0
0.0 0.0017852356657421867 0.0
0.0 0.001785235358353569 0.0
0.0 0.001785235300300212 0.0
0.0 0.001785235732541805 0.0
0.0 0.0017852354954708107 0.0
0.0 0.0017852351173658304 0.0
0.0 0.0017852356997439809 0.0
0.0 0.0017852357398142574 0.0
0.0 0.001785234978502806 0.0
0.0 0.0017852354991251776 0.0
0.0 0.0017852360523453441 0.0
0.0 0.0017852349996680269 0.0
0.0 0.0017852351005635898 0.0
0.0 0.0017852362976865483 0.0
0.0 0.0017852353201790387 0.0
0.0 0.00178523458334448 0.0
0.0 0.0017852362404462195 0.0
0.0 0.0017852359881402183 0.0
0.0 0.0017852342331421385 0.0
0.0 0.0017852356289981609 0.0
0.0 0.00178523678516074 0.0
0.0 0.0017852345160295287 0.0
0.0 0.001785234478290768 0.0
0.0 0.001785237075691125 0.0
0.0 0.0017852357810988011 0.0
0.0 0.0017852334391701397 0.0
0.0 0.0017852360415343141 0.0
0.0 0.001785237585459447 0.0
0.0 0.0017852338422195881 0.0
0.0 0.001785233608185114 0.0
0.0 0.001785238179677308 0.0
0.0 0.0017852366038559131 0.0
0.0 0.00178523172238193 0.0
0.0 0.0017852354750257154 0.0
0.0 0.0017852399740044297 0.0
0.0 0.0017852339071970631 0.0
0.0 0.0017852304911936448 0.0
0.0 0.0017852388027206022 0.0
0.0 0.0017852405677313793 0.0
0.0 0.0017852300934948898 0.0
0.0 0.0017852304219575913 0.0
0.0 0.0017852431075088973 0.0
0.0 0.0017852402410425566 0.0
0.0 0.0017852251247510238 0.0
0.0 0.0017852310053310828 0.0
0.0 0.00178524894625144 0.0
0.0 0.0017852396253993333 0.0