# vtk DataFile Version 2.0
data_27
ASCII
DATASET UNSTRUCTURED_GRID
POINTS 804 float
0.0 0.0 0.0
0.1 0.0 0.0
0.1 20.0 0.0
0.0 20.0 0.0
0.0 0.0 -0.1
0.1 0.0 -0.1
0.1 20.0 -0.1
0.0 20.0 -0.1
0.1 0.09999999999992462 0.0
0.1 0.1999999999998517 0.0
0.1 0.2999999999997818 0.0
0.1 0.399999999999712 0.0
0.1 0.4999999999996377 0.0
0.1 0.5999999999995541 0.0
0.1 0.6999999999994495 0.0
0.1 0.7999999999993355 0.0
0.1 0.8999999999992101 0.0
0.1 0.999999999999102 0.0
0.1 1.099999999999006 0.0
0.1 1.199999999998936 0.0
0.1 1.299999999998867 0.0
0.1 1.399999999998797 0.0
0.1 1.499999999998727 0.0
0.1 1.599999999998657 0.0
0.1 1.699999999998587 0.0
0.1 1.799999999998517 0.0
0.1 1.899999999998447 0.0
0.1 1.999999999998378 0.0
0.1 2.099999999998308 0.0
0.1 2.199999999998238 0.0
0.1 2.299999999998168 0.0
0.1 2.399999999998067 0.0
0.1 2.499999999997942 0.0
0.1 2.599999999997706 0.0
0.1 2.699999999997444 0.0
0.1 2.799999999997153 0.0
0.1 2.899999999996861 0.0
0.1 2.999999999996569 0.0
0.1 3.099999999996277 0.0
0.1 3.199999999995984 0.0
0.1 3.299999999995693 0.0
0.1 3.399999999995401 0.0
0.1 3.499999999995108 0.0
0.1 3.599999999994816 0.0
0.1 3.699999999994525 0.0
0.1 3.799999999994232 0.0
0.1 3.89999999999394 0.0
0.1 3.999999999993648 0.0
0.1 4.099999999993356 0.0
0.1 4.199999999993064 0.0
0.1 4.299999999992772 0.0
0.1 4.399999999992479 0.0
0.1 4.499999999992188 0.0
0.1 4.599999999991895 0.0
0.1 4.699999999991603 0.0
0.1 4.799999999991311 0.0
0.1 4.899999999991019 0.0
0.1 4.999999999990727 0.0
0.1 5.099999999990436 0.0
0.1 5.199999999990144 0.0
0.1 5.299999999989851 0.0
0.1 5.399999999989559 0.0
0.1 5.499999999989267 0.0
0.1 5.599999999988975 0.0
0.1 5.699999999988683 0.0
0.1 5.799999999988391 0.0
0.1 5.899999999988099 0.0
0.1 5.999999999987806 0.0
0.1 6.099999999987515 0.0
0.1 6.199999999987222 0.0
0.1 6.299999999986929 0.0
0.1 6.399999999986638 0.0
0.1 6.499999999986345 0.0
0.1 6.599999999986054 0.0
0.1 6.699999999985762 0.0
0.1 6.79999999998547 0.0
0.1 6.899999999985177 0.0
0.1 6.999999999984885 0.0
0.1 7.099999999984593 0.0
0.1 7.199999999984302 0.0
0.1 7.299999999984009 0.0
0.1 7.399999999983717 0.0
0.1 7.499999999983426 0.0
0.1 7.599999999983132 0.0
0.1 7.699999999982841 0.0
0.1 7.799999999982549 0.0
0.1 7.899999999982256 0.0
0.1 7.999999999982034 0.0
0.1 8.099999999981964 0.0
0.1 8.199999999982062 0.0
0.1 8.299999999982214 0.0
0.1 8.399999999982366 0.0
0.1 8.499999999982517 0.0
0.1 8.59999999998267 0.0
0.1 8.699999999982822 0.0
0.1 8.799999999982973 0.0
0.1 8.899999999983125 0.0
0.1 8.999999999983277 0.0
0.1 9.09999999998343 0.0
0.1 9.19999999998358 0.0
0.1 9.299999999983733 0.0
0.1 9.399999999983885 0.0
0.1 9.499999999984038 0.0
0.1 9.599999999984188 0.0
0.1 9.69999999998434 0.0
0.1 9.799999999984493 0.0
0.1 9.899999999984646 0.0
0.1 9.999999999984798 0.0
0.1 10.09999999998495 0.0
0.1 10.1999999999851 0.0
0.1 10.29999999998525 0.0
0.1 10.39999999998541 0.0
0.1 10.49999999998556 0.0
0.1 10.59999999998571 0.0
0.1 10.69999999998586 0.0
0.1 10.79999999998601 0.0
0.1 10.89999999998616 0.0
0.1 10.99999999998632 0.0
0.1 11.09999999998647 0.0
0.1 11.19999999998662 0.0
0.1 11.29999999998677 0.0
0.1 11.39999999998693 0.0
0.1 11.49999999998708 0.0
0.1 11.59999999998723 0.0
0.1 11.69999999998738 0.0
0.1 11.79999999998754 0.0
0.1 11.89999999998769 0.0
0.1 11.99999999998784 0.0
0.1 12.09999999998799 0.0
0.1 12.19999999998814 0.0
0.1 12.2999999999883 0.0
0.1 12.39999999998845 0.0
0.1 12.4999999999886 0.0
0.1 12.59999999998875 0.0
0.1 12.6999999999889 0.0
0.1 12.79999999998905 0.0
0.1 12.89999999998921 0.0
0.1 12.99999999998936 0.0
0.1 13.09999999998951 0.0
0.1 13.19999999998966 0.0
0.1 13.29999999998982 0.0
0.1 13.39999999998997 0.0
0.1 13.49999999999012 0.0
0.1 13.59999999999027 0.0
0.1 13.69999999999042 0.0
0.1 13.79999999999057 0.0
0.1 13.89999999999073 0.0
0.1 13.99999999999088 0.0
0.1 14.09999999999103 0.0
0.1 14.19999999999118 0.0
0.1 14.29999999999134 0.0
0.1 14.39999999999149 0.0
0.1 14.49999999999164 0.0
0.1 14.59999999999179 0.0
0.1 14.69999999999194 0.0
0.1 14.7999999999921 0.0
0.1 14.89999999999225 0.0
0.1 14.9999999999924 0.0
0.1 15.09999999999255 0.0
0.1 15.1999999999927 0.0
0.1 15.29999999999285 0.0
0.1 15.39999999999301 0.0
0.1 15.49999999999316 0.0
0.1 15.59999999999331 0.0
0.1 15.69999999999346 0.0
0.1 15.79999999999362 0.0
0.1 15.89999999999377 0.0
0.1 15.99999999999392 0.0
0.1 16.09999999999407 0.0
0.1 16.19999999999422 0.0
0.1 16.29999999999437 0.0
0.1 16.39999999999453 0.0
0.1 16.49999999999468 0.0
0.1 16.59999999999483 0.0
0.1 16.69999999999498 0.0
0.1 16.79999999999514 0.0
0.1 16.89999999999528 0.0
0.1 16.99999999999544 0.0
0.1 17.09999999999559 0.0
0.1 17.19999999999574 0.0
0.1 17.29999999999589 0.0
0.1 17.39999999999605 0.0
0.1 17.4999999999962 0.0
0.1 17.59999999999635 0.0
0.1 17.6999999999965 0.0
0.1 17.79999999999665 0.0
0.1 17.89999999999681 0.0
0.1 17.99999999999696 0.0
0.1 18.09999999999711 0.0
0.1 18.19999999999726 0.0
0.1 18.29999999999742 0.0
0.1 18.39999999999757 0.0
0.1 18.49999999999772 0.0
0.1 18.59999999999787 0.0
0.1 18.69999999999802 0.0
0.1 18.79999999999818 0.0
0.1 18.89999999999833 0.0
0.1 18.99999999999848 0.0
0.1 19.09999999999863 0.0
0.1 19.19999999999878 0.0
0.1 19.29999999999894 0.0
0.1 19.39999999999909 0.0
0.1 19.49999999999924 0.0
0.1 19.59999999999939 0.0
0.1 19.69999999999955 0.0
0.1 19.7999999999997 0.0
0.1 19.89999999999985 0.0
0.0 19.9 0.0
0.0 19.8 0.0
0.0 19.7 0.0
0.0 19.6 0.0
0.0 19.5 0.0
0.0 19.4 0.0
0.0 19.3 0.0
0.0 19.2 0.0
0.0 19.1 0.0
0.0 19.0 0.0
0.0 18.9 0.0
0.0 18.8 0.0
0.0 18.7 0.0
0.0 18.6 0.0
0.0 18.5 0.0
0.0 18.4 0.0
0.0 18.3 0.0
0.0 18.2 0.0
0.0 18.1 0.0
0.0 18.0 0.0
0.0 17.9 0.0
0.0 17.8 0.0
0.0 17.7 0.0
0.0 17.6 0.0
0.0 17.5 0.0
0.0 17.4 0.0
0.0 17.3 0.0
0.0 17.2 0.0
0.0 17.09999999999999 0.0
0.0 17.0 0.0
0.0 16.9 0.0
0.0 16.8 0.0
0.0 16.7 0.0
0.0 16.59999999999999 0.0
0.0 16.49999999999999 0.0
0.0 16.4 0.0
0.0 16.29999999999999 0.0
0.0 16.2 0.0
0.0 16.09999999999999 0.0
0.0 15.99999999999999 0.0
0.0 15.89999999999999 0.0
0.0 15.79999999999999 0.0
0.0 15.69999999999999 0.0
0.0 15.59999999999999 0.0
0.0 15.49999999999999 0.0
0.0 15.39999999999999 0.0
0.0 15.29999999999999 0.0
0.0 15.19999999999999 0.0
0.0 15.09999999999999 0.0
0.0 14.99999999999999 0.0
0.0 14.89999999999999 0.0
0.0 14.79999999999999 0.0
0.0 14.69999999999999 0.0
0.0 14.59999999999999 0.0
0.0 14.49999999999999 0.0
0.0 14.39999999999999 0.0
0.0 14.29999999999999 0.0
0.0 14.19999999999999 0.0
0.0 14.09999999999999 0.0
0.0 13.99999999999999 0.0
0.0 13.89999999999999 0.0
0.0 13.79999999999999 0.0
0.0 13.69999999999999 0.0
0.0 13.59999999999999 0.0
0.0 13.49999999999999 0.0
0.0 13.39999999999999 0.0
0.0 13.29999999999999 0.0
0.0 13.19999999999999 0.0
0.0 13.09999999999999 0.0
0.0 12.99999999999999 0.0
0.0 12.89999999999999 0.0
0.0 12.79999999999999 0.0
0.0 12.69999999999999 0.0
0.0 12.59999999999999 0.0
0.0 12.49999999999999 0.0
0.0 12.39999999999999 0.0
0.0 12.29999999999999 0.0
0.0 12.19999999999999 0.0
0.0 12.09999999999999 0.0
0.0 11.99999999999999 0.0
0.0 11.89999999999999 0.0
0.0 11.79999999999999 0.0
0.0 11.69999999999999 0.0
0.0 11.59999999999999 0.0
0.0 11.49999999999999 0.0
0.0 11.39999999999999 0.0
0.0 11.29999999999999 0.0
0.0 11.19999999999999 0.0
0.0 11.09999999999999 0.0
0.0 10.99999999999999 0.0
0.0 10.89999999999999 0.0
0.0 10.79999999999999 0.0
0.0 10.69999999999999 0.0
0.0 10.59999999999999 0.0
0.0 10.49999999999999 0.0
0.0 10.39999999999999 0.0
0.0 10.29999999999999 0.0
0.0 10.19999999999999 0.0
0.0 10.09999999999999 0.0
0.0 9.999999999999993 0.0
0.0 9.899999999999993 0.0
0.0 9.799999999999994 0.0
0.0 9.699999999999992 0.0
0.0 9.599999999999993 0.0
0.0 9.499999999999993 0.0
0.0 9.399999999999993 0.0
0.0 9.299999999999995 0.0
0.0 9.199999999999996 0.0
0.0 9.099999999999994 0.0
0.0 8.999999999999995 0.0
0.0 8.899999999999995 0.0
0.0 8.799999999999994 0.0
0.0 8.699999999999994 0.0
0.0 8.599999999999994 0.0
0.0 8.499999999999995 0.0
0.0 8.399999999999995 0.0
0.0 8.299999999999994 0.0
0.0 8.199999999999994 0.0
0.0 8.099999999999994 0.0
0.0 7.999999999999993 0.0
0.0 7.899999999999995 0.0
0.0 7.799999999999995 0.0
0.0 7.699999999999996 0.0
0.0 7.599999999999996 0.0
0.0 7.499999999999996 0.0
0.0 7.399999999999995 0.0
0.0 7.299999999999995 0.0
0.0 7.199999999999996 0.0
0.0 7.099999999999994 0.0
0.0 6.999999999999995 0.0
0.0 6.899999999999995 0.0
0.0 6.799999999999995 0.0
0.0 6.699999999999996 0.0
0.0 6.599999999999994 0.0
0.0 6.499999999999995 0.0
0.0 6.399999999999997 0.0
0.0 6.299999999999997 0.0
0.0 6.199999999999996 0.0
0.0 6.099999999999996 0.0
0.0 5.999999999999996 0.0
0.0 5.899999999999997 0.0
0.0 5.799999999999997 0.0
0.0 5.699999999999996 0.0
0.0 5.599999999999996 0.0
0.0 5.499999999999996 0.0
0.0 5.399999999999995 0.0
0.0 5.299999999999995 0.0
0.0 5.199999999999996 0.0
0.0 5.099999999999996 0.0
0.0 4.999999999999998 0.0
0.0 4.899999999999999 0.0
0.0 4.799999999999997 0.0
0.0 4.699999999999998 0.0
0.0 4.599999999999998 0.0
0.0 4.499999999999996 0.0
0.0 4.399999999999997 0.0
0.0 4.299999999999997 0.0
0.0 4.199999999999998 0.0
0.0 4.099999999999998 0.0
0.0 3.999999999999996 0.0
0.0 3.899999999999999 0.0
0.0 3.799999999999997 0.0
0.0 3.699999999999996 0.0
0.0 3.599999999999998 0.0
0.0 3.5 0.0
0.0 3.399999999999999 0.0
0.0 3.299999999999997 0.0
0.0 3.199999999999999 0.0
0.0 3.099999999999998 0.0
0.0 3.0 0.0
0.0 2.899999999999999 0.0
0.0 2.799999999999997 0.0
0.0 2.699999999999999 0.0
0.0 2.599999999999998 0.0
0.0 2.499999999999996 0.0
0.0 2.399999999999999 0.0
0.0 2.299999999999997 0.0
0.0 2.199999999999999 0.0
0.0 2.100000000000001 0.0
0.0 2.0 0.0
0.0 1.899999999999999 0.0
0.0 1.800000000000001 0.0
0.0 1.699999999999999 0.0
0.0 1.599999999999998 0.0
0.0 1.5 0.0
0.0 1.399999999999999 0.0
0.0 1.299999999999997 0.0
0.0 1.199999999999999 0.0
0.0 1.099999999999998 0.0
0.0 1.0 0.0
0.0 0.8999999999999986 0.0
0.0 0.8000000000000007 0.0
0.0 0.6999999999999993 0.0
0.0 0.6000000000000014 0.0
0.0 0.5 0.0
0.0 0.3999999999999986 0.0
0.0 0.3000000000000007 0.0
0.0 0.1999999999999993 0.0
[...]
POINT_DATA 804
VECTORS displacement double
0.0 0.0 0.0
0.0 0.0 0.0
0.0 -0.0018023313868123067 0.0
0.0 -0.0018023313868120849 0.0
0.0 0.0 0.0
0.0 0.0 0.0
0.0 -0.0018023313868122982 0.0
0.0 -0.0018023313868120764 0.0
0.0 -6.0882383765980714e-158 0.0
0.0 3.7669458885333506e-157 0.0
0.0 -2.247346962964471e-156 0.0
0.0 1.3225836956533674e-155 0.0
0.0 -7.658044013873688e-155 0.0
0.0 4.3419973817962435e-154 0.0
0.0 -2.3929776805985914e-153 0.0
0.0 1.2662902281397491e-152 0.0
0.0 -6.288616445587121e-152 0.0
0.0 2.7862645727058242e-151 0.0
0.0 -9.413556780092316e-151 0.0
0.0 3.206396824251993e-151 0.0
0.0 3.6476348269218346e-149 0.0
0.0 -4.9292013642272975e-148 0.0
0.0 4.897113019503502e-147 0.0
0.0 -4.300997904923641e-146 0.0
0.0 3.531931790247509e-145 0.0
0.0 -2.7795268100710747e-144 0.0
0.0 2.123771966546194e-143 0.0
0.0 -1.5877596138134379e-142 0.0
0.0 1.1672399714314935e-141 0.0
0.0 -8.466472282950867e-141 0.0
0.0 6.073730095193529e-140 0.0
0.0 -4.317050710660871e-139 0.0
0.0 3.0442382554442863e-138 0.0
0.0 -2.1319645828617737e-137 0.0
0.0 1.4840428871706605e-136 0.0
0.0 -1.0274556737194321e-135 0.0
0.0 7.078835901094249e-135 0.0
0.0 -4.855496856878595e-134 0.0
0.0 3.316938955559786e-133 0.0
0.0 -2.2573901688471477e-132 0.0
0.0 1.5309251956346492e-131 0.0
0.0 -1.034845737895733e-130 0.0
0.0 6.973549759739659e-130 0.0
0.0 -4.6855408834735544e-129 0.0
0.0 3.1394559546574846e-128 0.0
0.0 -2.0979303956199384e-127 0.0
0.0 1.3983505086162633e-126 0.0
0.0 -9.297574000190694e-126 0.0
0.0 6.167186626018006e-125 0.0
0.0 -4.08130595841335e-124 0.0
0.0 2.6948382569860522e-123 0.0
0.0 -1.775461226059349e-122 0.0
0.0 1.167226225654801e-121 0.0
0.0 -7.65741108800411e-121 0.0
0.0 5.013110594683615e-120 0.0
0.0 -3.275247741411697e-119 0.0
0.0 2.1355206086984404e-118 0.0
0.0 -1.3896183368332836e-117 0.0
0.0 9.024585413510988e-117 0.0
0.0 -5.849318178256905e-116 0.0
0.0 3.783854532691206e-115 0.0
0.0 -2.442971975334171e-114 0.0
0.0 1.5741999290378486e-113 0.0
0.0 -1.0124183741677018e-112 0.0
0.0 6.49859106186287e-112 0.0
0.0 -4.163291388636138e-111 0.0
0.0 2.662019473796718e-110 0.0
0.0 -1.6987911337728598e-109 0.0
0.0 1.0819812580619879e-108 0.0
0.0 -6.877748853008589e-108 0.0
0.0 4.3632965842775966e-107 0.0
0.0 -2.762607836857834e-106 0.0
0.0 1.7456344304043094e-105 0.0
0.0 -1.1008030561705699e-104 0.0
0.0 6.927558254361472e-104 0.0
0.0 -4.3506705692100297e-103 0.0
0.0 2.726642162468027e-102 0.0
0.0 -1.7052409743350662e-101 0.0
0.0 1.0641871896754572e-100 0.0
0.0 -6.626942112607893e-100 0.0
0.0 4.1177376377221685e-99 0.0
0.0 -2.5529434333490083e-98 0.0
0.0 1.5792344844656428e-97 0.0
0.0 -9.746754231113185e-97 0.0
0.0 6.001580047861912e-96 0.0
0.0 -3.686775861289861e-95 0.0
0.0 2.2593622482834893e-94 0.0
0.0 -1.381225301492329e-93 0.0
0.0 8.422931419053608e-93 0.0
0.0 -5.123439772680706e-92 0.0
0.0 3.108408836937751e-91 0.0
0.0 -1.8809192948537555e-90 0.0
0.0 1.1350995785044418e-89 0.0
0.0 -6.831319208255525e-89 0.0
0.0 4.099735040928732e-88 0.0
0.0 -2.4533530434748356e-87 0.0
0.0 1.463822519625238e-86 0.0
0.0 -8.707841937751908e-86 0.0
0.0 5.16409833437653e-85 0.0
0.0 -3.052859939592641e-84 0.0
0.0 1.7989232122753818e-83 0.0
0.0 -1.056513572708062e-82 0.0
0.0 6.183807716328717e-82 0.0
0.0 -3.6067454794500837e-81 0.0
0.0 2.096101932998584e-80 0.0
0.0 -1.2136801612515437e-79 0.0
0.0 7.000802376496851e-79 0.0
0.0 -4.0225331866496605e-78 0.0
0.0 2.3020615452728445e-77 0.0
0.0 -1.3120758532486243e-76 0.0
0.0 7.447129067926294e-76 0.0
0.0 -4.2089787089427336e-75 0.0
0.0 2.3686630092079324e-74 0.0
0.0 -1.3272900440056167e-73 0.0
0.0 7.406043763566137e-73 0.0
0.0 -4.11549637536254e-72 0.0
0.0 2.2781510249141066e-71 0.0
0.0 -1.2567475164814325e-70 0.0
0.0 6.913521964173348e-70 0.0
0.0 -3.796223396362843e-69 0.0
0.0 2.083519415748203e-68 0.0
0.0 -1.1451222961641782e-67 0.0
0.0 6.318205991285211e-67 0.0
0.0 -3.5106359376857776e-66 0.0
0.0 1.9717250506681824e-65 0.0
0.0 -1.1239463718255136e-64 0.0
0.0 6.528385850971933e-64 0.0
0.0 -3.876355516013556e-63 0.0
0.0 2.357124633190236e-62 0.0
0.0 -1.467781969807505e-61 0.0
0.0 9.341624622253954e-61 0.0
0.0 -6.055949260492811e-60 0.0
0.0 3.9819296556453693e-59 0.0
0.0 -2.6437889813465583e-58 0.0
0.0 1.7651396153512251e-57 0.0
0.0 -1.1808321628024993e-56 0.0
0.0 7.891620801540445e-56 0.0
0.0 -5.2563325674071185e-55 0.0
0.0 3.482767616929497e-54 0.0
0.0 -2.2921718974757044e-53 0.0
0.0 1.4966910783845713e-52 0.0
0.0 -9.68609358278883e-52 0.0
0.0 6.207611569283597e-51 0.0
0.0 -3.936649654093773e-50 0.0
0.0 2.468652215427517e-49 0.0
0.0 -1.5301020464349203e-48 0.0
0.0 9.376974632063976e-48 0.0
0.0 -5.70296248070036e-47 0.0
0.0 3.5008751376776963e-46 0.0
0.0 -2.3098857487130873e-45 0.0
0.0 1.9372596338086497e-44 0.0
0.0 -2.4893358844479755e-43 0.0
0.0 4.5254102077776445e-42 0.0
0.0 -9.427054356347894e-41 0.0
0.0 2.0159565788738838e-39 0.0
0.0 -4.273793409418708e-38 0.0
0.0 8.891105049683987e-37 0.0
0.0 -1.8083808410334526e-35 0.0
0.0 3.587839239812316e-34 0.0
0.0 -6.929135278260082e-33 0.0
0.0 1.2997052235997296e-31 0.0
0.0 -2.361619166955746e-30 0.0
0.0 4.144492164077349e-29 0.0
0.0 -6.999897608950493e-28 0.0
0.0 1.1329896945233965e-26 0.0
0.0 -1.748296814580986e-25 0.0
0.0 2.5551832710085286e-24 0.0
0.0 -3.50721669602398e-23 0.0
0.0 4.4692430948017435e-22 0.0
0.0 -5.199969896387183e-21 0.0
0.0 5.3799036177588675e-20 0.0
0.0 -4.713757984385182e-19 0.0
0.0 3.1072828166412956e-18 0.0
0.0 -8.52414165974308e-18 0.0
0.0 -1.3235830678030625e-16 0.0
0.0 2.503255595927195e-15 0.0
0.0 -2.1279112341166713e-14 0.0
0.0 5.432593596299559e-14 0.0
0.0 1.0162026246063012e-12 0.0
0.0 -1.3183295331673958e-11 0.0
0.0 3.238240712029716e-11 0.0
0.0 6.695160012126807e-10 0.0
0.0 -5.25677770745938e-09 0.0
0.0 -2.3937981442066845e-08 0.0
0.0 3.287267957604599e-07 0.0
0.0 1.495747363690741e-06 0.0
0.0 -1.181105435769105e-05 0.0
0.0 -0.00012832776333078803 0.0
0.0 -0.0005342577140034688 0.0
0.0 -0.001263216090611428 0.0
0.0 -0.0018590521245079718 0.0
0.0 -0.0018700814003432787 0.0
0.0 -0.0017012532842963198 0.0
0.0 -0.0018092758888846507 0.0
0.0 -0.001820288036618629 0.0
0.0 -0.0017423913649573521 0.0
0.0 -0.0018233594151680112 0.0
0.0 -0.0017751604830813779 0.0
0.0 -0.0017831952663111981 0.0
0.0 -0.0018068139839970381 0.0
0.0 -0.0017646452220137182 0.0
0.0 -0.0018139449494092073 0.0
0.0 -0.0017651233836498087 0.0
0.0 -0.0018095258949693152 0.0
0.0 -0.0017707796332706734 0.0
0.0 -0.001804324808725512 0.0
0.0 -0.0017745983794961323 0.0
0.0 -0.0017745983794963615 0.0
0.0 -0.0018043248087252844 0.0
0.0 -0.0017707796332708627 0.0
0.0 -0.0018095258949691422 0.0
0.0 -0.0017651233836499317 0.0
0.0 -0.0018139449494091154 0.0
0.0 -0.0017646452220139157 0.0
0.0 -0.0018068139839966958 0.0
0.0 -0.001783195266311729 0.0
0.0 -0.0017751604830806846 0.0
0.0 -0.0018233594151685452 0.0
0.0 -0.0017423913649576381 0.0
0.0 -0.0018202880366169757 0.0
0.0 -0.0018092758888871515 0.0
0.0 -0.0017012532842957018 0.0
0.0 -0.001870081400338616 0.0
0.0 -0.0018590521245159324 0.0
0.0 -0.001263216090632364 0.0
0.0 -0.0005342577140209071 0.0
0.0 -0.0001283277633379005 0.0
0.0 -1.1811054358994529e-05 0.0
0.0 1.4957473637013978e-06 0.0
0.0 3.2872679579585937e-07 0.0
0.0 -2.3937981441575437e-08 0.0
0.0 -5.256777708243913e-09 0.0
0.0 6.695160012467578e-10 0.0
0.0 3.2382407132437984e-11 0.0
0.0 -1.3183295333568408e-11 0.0
0.0 1.016202624634102e-12 0.0
0.0 5.43259359903259e-14 0.0
0.0 -2.1279112345842387e-14 0.0
0.0 2.5032555962918942e-15 0.0
0.0 -1.323583067759018e-16 0.0
0.0 -8.524141665791297e-18 0.0
0.0 3.1072828177657448e-18 0.0
0.0 -4.713757985854599e-19 0.0
0.0 5.379903619372819e-20 0.0
0.0 -5.199969898018397e-21 0.0
0.0 4.469243096461557e-22 0.0
0.0 -3.507216697871237e-23 0.0
0.0 2.5551832732663814e-24 0.0
0.0 -1.7482968172164131e-25 0.0
0.0 1.1329896963256202e-26 0.0
0.0 -6.999897571501473e-28 0.0
0.0 4.144491935101996e-29 0.0
0.0 -2.3616184046777787e-30 0.0
0.0 1.2997031400270972e-31 0.0
0.0 -6.92908414108768e-33 0.0
0.0 3.587722463741243e-34 0.0
0.0 -1.8081281413233318e-35 0.0
0.0 8.885866277134151e-37 0.0
0.0 -4.263313723926828e-38 0.0
0.0 1.9956254103967266e-39 0.0
0.0 -9.043075266869181e-41 0.0
0.0 3.81738513559758e-42 0.0
0.0 -1.2117371656767766e-43 0.0
0.0 -3.230641760189615e-45 0.0
0.0 1.61717083141808e-45 0.0
0.0 -3.20833023117162e-46 0.0
0.0 5.581745183274532e-47 0.0
0.0 -9.328605760838325e-48 0.0
0.0 1.5284271376929207e-48 0.0
0.0 -2.4685183792021132e-49 0.0
0.0 3.9375590327188415e-50 0.0
0.0 -6.209633864648731e-51 0.0
0.0 9.689682330498374e-52 0.0
0.0 -1.497289953220985e-52 0.0
0.0 2.293142296298714e-53 0.0
0.0 -3.484307889945755e-54 0.0
0.0 5.258735613621696e-55 0.0
0.0 -7.89531296426515e-56 0.0
0.0 1.1813916034435676e-56 0.0
0.0 -1.765976489978761e-57 0.0
0.0 2.6450260656911927e-58 0.0
0.0 -3.983738125502184e-59 0.0
0.0 6.05856558027364e-60 0.0
0.0 -9.345372586589565e-61 0.0
0.0 1.4683138970570075e-61 0.0
0.0 -2.3578729111805904e-62 0.0
0.0 3.877399293875972e-63 0.0
0.0 -6.52983012566671e-64 0.0
0.0 1.1241446772876947e-64 0.0
0.0 -1.9719953192719196e-65 0.0
0.0 3.511001661693112e-66 0.0
0.0 -6.318697485687093e-67 0.0
0.0 1.1451879094387564e-67 0.0
0.0 -2.0836064449775635e-68 0.0
0.0 3.7963381121948583e-69 0.0
0.0 -6.913672258919808e-70 0.0
0.0 1.256767091282754e-70 0.0
0.0 -2.278176373217755e-71 0.0
0.0 4.115529015925209e-72 0.0
0.0 -7.406085563683852e-73 0.0
0.0 1.3272953682437163e-73 0.0
0.0 -2.368669755137756e-74 0.0
0.0 4.2089872119088953e-75 0.0
0.0 -7.447139730920709e-76 0.0
0.0 1.312077183703535e-76 0.0
0.0 -2.3020631970911478e-77 0.0
0.0 4.022535227409309e-78 0.0
0.0 -7.000804885572049e-79 0.0
0.0 1.2136804682613511e-79 0.0
0.0 -2.0961023068801182e-80 0.0
0.0 3.6067459326504205e-81 0.0
0.0 -6.183808263170677e-82 0.0
0.0 1.0565136383990544e-82 0.0
0.0 -1.7989232908541896e-83 0.0
0.0 3.0528600332161445e-84 0.0
0.0 -5.164098445532e-85 0.0
0.0 8.70784206934138e-86 0.0
0.0 -1.4638225351731117e-86 0.0
0.0 2.4533530618354685e-87 0.0
0.0 -4.0997350626430675e-88 0.0
0.0 6.831319234046977e-89 0.0
0.0 -1.1350995815929153e-89 0.0
0.0 1.8809192986009174e-90 0.0
0.0 -3.108408841571398e-91 0.0
0.0 5.12343977855753e-92 0.0
0.0 -8.42293142674351e-93 0.0
0.0 1.3812253025349495e-93 0.0
0.0 -2.259362249748765e-94 0.0
0.0 3.6867758634170794e-95 0.0
0.0 -6.001580051033375e-96 0.0
0.0 9.746754235940156e-97 0.0
0.0 -1.5792344852112778e-97 0.0
0.0 2.5529434345120964e-98 0.0
0.0 -4.117737639547e-99 0.0
0.0 6.62694211547933e-100 0.0
0.0 -1.0641871901276887e-100 0.0
0.0 1.7052409750468374e-101 0.0
0.0 -2.726642163586661e-102 0.0
0.0 4.350670570964523e-103 0.0
0.0 -6.927558257106578e-104 0.0
0.0 1.1008030565989479e-104 0.0
0.0 -1.7456344310709753e-105 0.0
0.0 2.762607837892448e-106 0.0
0.0 -4.36329658587888e-107 0.0
0.0 6.877748855480171e-108 0.0
0.0 -1.081981258442434e-108 0.0
0.0 1.6987911343568696e-109 0.0
0.0 -2.662019474690873e-110 0.0
0.0 4.1632913900014656e-111 0.0
0.0 -6.498591063942302e-112 0.0
0.0 1.0124183744835574e-112 0.0
0.0 -1.5741999295163742e-113 0.0
0.0 2.4429719760572316e-114 0.0
0.0 -3.7838545337808237e-115 0.0
0.0 5.849318179894659e-116 0.0
0.0 -9.024585415965829e-117 0.0
0.0 1.3896183372002272e-117 0.0
0.0 -2.135520609245415e-118 0.0
0.0 3.275247742224761e-119 0.0
0.0 -5.0131105958885426e-120 0.0
0.0 7.657411089784495e-121 0.0
0.0 -1.167226225917058e-121 0.0
0.0 1.7754612264443656e-122 0.0
0.0 -2.6948382575494294e-123 0.0
0.0 4.081305959234822e-124 0.0
0.0 -6.167186627211509e-125 0.0
0.0 9.2975740019182e-126 0.0
0.0 -1.3983505088652505e-126 0.0
0.0 2.097930395977334e-127 0.0
0.0 -3.1394559551681615e-128 0.0
0.0 4.685540884199582e-129 0.0
0.0 -6.973549760766607e-130 0.0
0.0 1.0348457380401904e-130 0.0
0.0 -1.5309251958365958e-131 0.0
0.0 2.25739016912749e-132 0.0
0.0 -3.3169389559461726e-133 0.0
0.0 4.855496857406574e-134 0.0
0.0 -7.078835901809076e-135 0.0
0.0 1.0274556738151781e-135 0.0
0.0 -1.4840428872973011e-136 0.0
0.0 2.1319645830266575e-137 0.0
0.0 -3.044238255655628e-138 0.0
0.0 4.317050710924998e-139 0.0
0.0 -6.073730095519209e-140 0.0
0.0 8.466472283345108e-141 0.0
0.0 -1.1672399714783623e-141 0.0
0.0 1.5877596138676505e-142 0.0
0.0 -2.1237719666061326e-143 0.0
0.0 2.779526810132286e-144 0.0
0.0 -3.53193179030069e-145 0.0
0.0 4.300997904950683e-146 0.0
0.0 -4.8971130194717454e-147 0.0
0.0 4.92920136408066e-148 0.0
0.0 -3.647634826565705e-149 0.0
0.0 -3.206396831464744e-151 0.0
0.0 9.413556781428272e-151 0.0
0.0 -2.7862645729405936e-151 0.0
0.0 6.28861644598552e-152 0.0
0.0 -1.2662902282055529e-152 0.0
0.0 2.392977680704624e-153 0.0
0.0 -4.3419973819631245e-154 0.0
0.0 7.658044014130483e-155 0.0
0.0 -1.322583695692108e-155 0.0
0.0 2.247346963021831e-156 0.0
0.0 -3.7669458886168916e-157 0.0
0.0 6.08823837671534e-158 0.0
0.0 6.088238376598077e-158 0.0
0.0 -3.766945888533355e-157 0.0
0.0 2.2473469629644733e-156 0.0
0.0 -1.3225836956533689e-155 0.0
0.0 7.658044013873697e-155 0.0
0.0 -4.3419973817962554e-154 0.0
0.0 2.392977680598605e-153 0.0
0.0 -1.266290228139758e-152 0.0
0.0 6.288616445587199e-152 0.0
0.0 -2.7862645727059002e-151 0.0
0.0 9.41355678009298e-151 0.0
0.0 -3.206396824258198e-151 0.0
0.0 -3.6476348269212923e-149 0.0
0.0 4.929201364226824e-148 0.0
0.0 -4.8971130195030763e-147 0.0
0.0 4.300997904923264e-146 0.0
0.0 -3.531931790247158e-145 0.0
0.0 2.7795268100707514e-144 0.0
0.0 -2.123771966545907e-143 0.0
0.0 1.5877596138131687e-142 0.0
0.0 -1.1672399714312551e-141 0.0
0.0 8.466472282948713e-141 0.0
0.0 -6.073730095191571e-140 0.0
0.0 4.317050710659124e-139 0.0
0.0 -3.044238255442698e-138 0.0
0.0 2.1319645828603494e-137 0.0
0.0 -1.4840428871693785e-136 0.0
0.0 1.0274556737182798e-135 0.0
0.0 -7.078835901083903e-135 0.0
0.0 4.855496856869319e-134 0.0
0.0 -3.316938955551469e-133 0.0
0.0 2.257390168839708e-132 0.0
0.0 -1.5309251956279975e-131 0.0
0.0 1.0348457378897943e-130 0.0
0.0 -6.973549759686626e-130 0.0
0.0 4.685540883426272e-129 0.0
0.0 -3.1394559546153943e-128 0.0
0.0 2.0979303955825214e-127 0.0
0.0 -1.398350508583045e-126 0.0
0.0 9.297573999896018e-126 0.0
0.0 -6.167186625756965e-125 0.0
0.0 4.081305958182392e-124 0.0
0.0 -2.69483825678194e-123 0.0
0.0 1.775461225879194e-122 0.0
0.0 -1.1672262254959758e-121 0.0
0.0 7.657411086605771e-121 0.0
0.0 -5.013110593453985e-120 0.0
0.0 3.2752477403318596e-119 0.0
0.0 -2.1355206077513705e-118 0.0
0.0 1.3896183360037728e-117 0.0
0.0 -9.02458540625533e-117 0.0
0.0 5.849318171919148e-116 0.0
0.0 -3.7838545271629483e-115 0.0
0.0 2.442971970518866e-114 0.0
0.0 -1.5741999248495738e-113 0.0
0.0 1.0124183705301072e-112 0.0
0.0 -6.498591030316532e-112 0.0
0.0 4.163291361319242e-111 0.0
0.0 -2.662019450178391e-110 0.0
0.0 1.6987911133839586e-109 0.0
0.0 -1.0819812404886939e-108 0.0
0.0 6.877748701785863e-108 0.0
0.0 -4.3632964543581966e-107 0.0
0.0 2.7626077254251982e-106 0.0
0.0 -1.7456343349884404e-105 0.0
0.0 1.100802974608817e-104 0.0
0.0 -6.927557558379917e-104 0.0
0.0 4.3506699763646287e-103 0.0
0.0 -2.7266416583819086e-102 0.0
0.0 1.705240546502224e-101 0.0
0.0 -1.0641868272356322e-100 0.0
0.0 6.626939047992349e-100 0.0
0.0 -4.117735051416135e-99 0.0
0.0 2.5529412549734513e-98 0.0
0.0 -1.5792326533352932e-97 0.0
0.0 9.746738869963714e-97 0.0
0.0 -6.0015671881872884e-96 0.0
0.0 3.686765118391933e-95 0.0
0.0 -2.259353292964686e-94 0.0
0.0 1.3812178526082457e-93 0.0
0.0 -8.422869598360861e-93 0.0
0.0 5.1233885820602986e-92 0.0
0.0 -3.108366546553745e-91 0.0
0.0 1.8808844396334431e-90 0.0
0.0 -1.1350709203208483e-89 0.0
0.0 6.831084156691785e-89 0.0
0.0 -4.099542736333216e-88 0.0
0.0 2.4531961134977847e-87 0.0
0.0 -1.4636947908122532e-86 0.0
0.0 8.706805090451622e-86 0.0
0.0 -5.16325895333863e-85 0.0
0.0 3.0521823034034217e-84 0.0
0.0 -1.7983777045290784e-83 0.0
0.0 1.0560757028341595e-82 0.0
0.0 -6.180303418463154e-82 0.0
0.0 3.6039494626174885e-81 0.0
0.0 -2.093877950517478e-80 0.0
0.0 1.2119167862684662e-79 0.0
0.0 -6.986866075584258e-79 0.0
0.0 4.0115556096863855e-78 0.0
0.0 -2.2934439327024138e-77 0.0
0.0 1.30533440832215e-76 0.0
0.0 -7.394579731274591e-76 0.0
0.0 4.1681664230384154e-75 0.0
0.0 -2.337085075145441e-74 0.0
0.0 1.3029509914036363e-73 0.0
0.0 -7.219187731780962e-73 0.0
0.0 3.9726238943748604e-72 0.0
0.0 -2.1693631100198732e-71 0.0
0.0 1.1742665261589209e-70 0.0
0.0 -6.290911231072216e-70 0.0
0.0 3.328364459958956e-69 0.0
0.0 -1.7335803285823135e-68 0.0
0.0 8.846328278856733e-68 0.0
0.0 -4.388699403049624e-67 0.0
0.0 2.0886478897929458e-66 0.0
0.0 -9.292367043030354e-66 0.0
0.0 3.637940667120837e-65 0.0
0.0 -1.01638799152096e-64 0.0
0.0 -9.754850668109496e-65 0.0
0.0 4.908900472788548e-63 0.0
0.0 -5.608140017341407e-62 0.0
0.0 5.016057186524618e-61 0.0
0.0 -4.0391364040233813e-60 0.0
0.0 3.067730094491387e-59 0.0
0.0 -2.2443981391535386e-58 0.0
0.0 1.5994411047941802e-57 0.0
0.0 -1.11738824946249e-56 0.0
0.0 7.682212283896031e-56 0.0
0.0 -5.210094347205998e-55 0.0
0.0 3.4906527440226434e-54 0.0
0.0 -2.31220933334398e-53 0.0
0.0 1.5148936510106594e-52 0.0
0.0 -9.817874620031457e-52 0.0
0.0 6.29339627705393e-51 0.0
0.0 -3.9890476385392716e-50 0.0
0.0 2.499294633173356e-49 0.0
0.0 -1.5474523349794062e-48 0.0
0.0 9.472754329069154e-48 0.0
0.0 -5.754747882780216e-47 0.0
0.0 3.528382845381874e-46 0.0
0.0 -2.32427046212205e-45 0.0
0.0 1.944673499613103e-44 0.0
0.0 -2.4931028805440478e-43 0.0
0.0 4.5272957218381215e-42 0.0
0.0 -9.427982248433228e-41 0.0
0.0 2.0160013145476612e-39 0.0
0.0 -4.2738144164854664e-38 0.0
0.0 8.891114567130171e-37 0.0
0.0 -1.8083812503984105e-35 0.0
0.0 3.5878394018967607e-34 0.0
0.0 -6.929135333171824e-33 0.0
0.0 1.2997052248052932e-31 0.0
0.0 -2.361619166686512e-30 0.0
0.0 4.144492163469278e-29 0.0
0.0 -6.999897608401635e-28 0.0
0.0 1.1329896944838684e-26 0.0
0.0 -1.7482968145558424e-25 0.0
0.0 2.555183270993527e-24 0.0
0.0 -3.507216696015854e-23 0.0
0.0 4.469243094797553e-22 0.0
0.0 -5.199969896385077e-21 0.0
0.0 5.3799036177578275e-20 0.0
0.0 -4.713757984384626e-19 0.0
0.0 3.1072828166409224e-18 0.0
0.0 -8.524141659740048e-18 0.0
0.0 -1.323583067803276e-16 0.0
0.0 2.5032555959275888e-15 0.0
0.0 -2.1279112341169632e-14 0.0
0.0 5.43259359630211e-14 0.0
0.0 1.0162026246061465e-12 0.0
0.0 -1.318329533167273e-11 0.0
0.0 3.238240712028791e-11 0.0
0.0 6.695160012127466e-10 0.0
0.0 -5.2567777074594385e-09 0.0
0.0 -2.3937981442069463e-08 0.0
0.0 3.287267957604663e-07 0.0
0.0 1.4957473636907974e-06 0.0
0.0 -1.181105435769122e-05 0.0
0.0 -0.00012832776333079494 0.0
0.0 -0.000534257714003474 0.0
0.0 -0.0012632160906114393 0.0
0.0 -0.0018590521245079737 0.0
0.0 -0.001870081400343268 0.0
0.0 -0.0017012532842963282 0.0
0.0 -0.001809275888884641 0.0
0.0 -0.0018202880366186393 0.0
0.0 -0.0017423913649573534 0.0
0.0 -0.0018233594151680198 0.0
0.0 -0.0017751604830813811 0.0
0.0 -0.0017831952663111912 0.0
0.0 -0.0018068139839970466 0.0
0.0 -0.0017646452220137128 0.0
0.0 -0.0018139449494091935 0.0
0.0 -0.0017651233836498133 0.0
0.0 -0.001809525894969305 0.0
0.0 -0.0017707796332706734 0.0
0.0 -0.0018043248087254969 0.0
0.0 -0.00177459837949614 0.0
0.0 -0.0017745983794963587 0.0
0.0 -0.0018043248087252892 0.0
0.0 -0.0017707796332708705 0.0
0.0 -0.0018095258949691524 0.0
0.0 -0.0017651233836499178 0.0
0.0 -0.0018139449494091139 0.0
0.0 -0.0017646452220139144 0.0
0.0 -0.0018068139839966927 0.0
0.0 -0.0017831952663117344 0.0
0.0 -0.0017751604830806822 0.0
0.0 -0.0018233594151685377 0.0
0.0 -0.0017423913649576366 0.0
0.0 -0.0018202880366169731 0.0
0.0 -0.001809275888887159 0.0
0.0 -0.001701253284295704 0.0
0.0 -0.0018700814003386203 0.0
0.0 -0.0018590521245159242 0.0
0.0 -0.0012632160906323607 0.0
0.0 -0.0005342577140209074 0.0
0.0 -0.00012832776333789438 0.0
0.0 -1.1811054358993858e-05 0.0
0.0 1.4957473637012443e-06 0.0
0.0 3.287267957958631e-07 0.0
0.0 -2.393798144157539e-08 0.0
0.0 -5.25677770824385e-09 0.0
0.0 6.695160012466709e-10 0.0
0.0 3.238240713244724e-11 0.0
0.0 -1.3183295333569651e-11 0.0
0.0 1.0162026246343683e-12 0.0
0.0 5.432593599030986e-14 0.0
0.0 -2.1279112345839862e-14 0.0
0.0 2.5032555962914726e-15 0.0
0.0 -1.323583067758497e-16 0.0
0.0 -8.524141665797696e-18 0.0
0.0 3.107282817766458e-18 0.0
0.0 -4.713757985855229e-19 0.0
0.0 5.379903619373323e-20 0.0