# vtk DataFile Version 2.0
data_471
ASCII
DATASET UNSTRUCTURED_GRID
POINTS 804 float
0.0 0.0 0.0
0.1 0.0 0.0
0.1 20.0 0.0
0.0 20.0 0.0
0.0 0.0 -0.1
0.1 0.0 -0.1
0.1 20.0 -0.1
0.0 20.0 -0.1
0.1 0.09999999999992462 0.0
0.1 0.1999999999998517 0.0
0.1 0.2999999999997818 0.0
0.1 0.399999999999712 0.0
0.1 0.4999999999996377 0.0
0.1 0.5999999999995541 0.0
0.1 0.6999999999994495 0.0
0.1 0.7999999999993355 0.0
0.1 0.8999999999992101 0.0
0.1 0.999999999999102 0.0
0.1 1.099999999999006 0.0
0.1 1.199999999998936 0.0
0.1 1.299999999998867 0.0
0.1 1.399999999998797 0.0
0.1 1.499999999998727 0.0
0.1 1.599999999998657 0.0
0.1 1.699999999998587 0.0
0.1 1.799999999998517 0.0
0.1 1.899999999998447 0.0
0.1 1.999999999998378 0.0
0.1 2.099999999998308 0.0
0.1 2.199999999998238 0.0
0.1 2.299999999998168 0.0
0.1 2.399999999998067 0.0
0.1 2.499999999997942 0.0
0.1 2.599999999997706 0.0
0.1 2.699999999997444 0.0
0.1 2.799999999997153 0.0
0.1 2.899999999996861 0.0
0.1 2.999999999996569 0.0
0.1 3.099999999996277 0.0
0.1 3.199999999995984 0.0
0.1 3.299999999995693 0.0
0.1 3.399999999995401 0.0
0.1 3.499999999995108 0.0
0.1 3.599999999994816 0.0
0.1 3.699999999994525 0.0
0.1 3.799999999994232 0.0
0.1 3.89999999999394 0.0
0.1 3.999999999993648 0.0
0.1 4.099999999993356 0.0
0.1 4.199999999993064 0.0
0.1 4.299999999992772 0.0
0.1 4.399999999992479 0.0
0.1 4.499999999992188 0.0
0.1 4.599999999991895 0.0
0.1 4.699999999991603 0.0
0.1 4.799999999991311 0.0
0.1 4.899999999991019 0.0
0.1 4.999999999990727 0.0
0.1 5.099999999990436 0.0
0.1 5.199999999990144 0.0
0.1 5.299999999989851 0.0
0.1 5.399999999989559 0.0
0.1 5.499999999989267 0.0
0.1 5.599999999988975 0.0
0.1 5.699999999988683 0.0
0.1 5.799999999988391 0.0
0.1 5.899999999988099 0.0
0.1 5.999999999987806 0.0
0.1 6.099999999987515 0.0
0.1 6.199999999987222 0.0
0.1 6.299999999986929 0.0
0.1 6.399999999986638 0.0
0.1 6.499999999986345 0.0
0.1 6.599999999986054 0.0
0.1 6.699999999985762 0.0
0.1 6.79999999998547 0.0
0.1 6.899999999985177 0.0
0.1 6.999999999984885 0.0
0.1 7.099999999984593 0.0
0.1 7.199999999984302 0.0
0.1 7.299999999984009 0.0
0.1 7.399999999983717 0.0
0.1 7.499999999983426 0.0
0.1 7.599999999983132 0.0
0.1 7.699999999982841 0.0
0.1 7.799999999982549 0.0
0.1 7.899999999982256 0.0
0.1 7.999999999982034 0.0
0.1 8.099999999981964 0.0
0.1 8.199999999982062 0.0
0.1 8.299999999982214 0.0
0.1 8.399999999982366 0.0
0.1 8.499999999982517 0.0
0.1 8.59999999998267 0.0
0.1 8.699999999982822 0.0
0.1 8.799999999982973 0.0
0.1 8.899999999983125 0.0
0.1 8.999999999983277 0.0
0.1 9.09999999998343 0.0
0.1 9.19999999998358 0.0
0.1 9.299999999983733 0.0
0.1 9.399999999983885 0.0
0.1 9.499999999984038 0.0
0.1 9.599999999984188 0.0
0.1 9.69999999998434 0.0
0.1 9.799999999984493 0.0
0.1 9.899999999984646 0.0
0.1 9.999999999984798 0.0
0.1 10.09999999998495 0.0
0.1 10.1999999999851 0.0
0.1 10.29999999998525 0.0
0.1 10.39999999998541 0.0
0.1 10.49999999998556 0.0
0.1 10.59999999998571 0.0
0.1 10.69999999998586 0.0
0.1 10.79999999998601 0.0
0.1 10.89999999998616 0.0
0.1 10.99999999998632 0.0
0.1 11.09999999998647 0.0
0.1 11.19999999998662 0.0
0.1 11.29999999998677 0.0
0.1 11.39999999998693 0.0
0.1 11.49999999998708 0.0
0.1 11.59999999998723 0.0
0.1 11.69999999998738 0.0
0.1 11.79999999998754 0.0
0.1 11.89999999998769 0.0
0.1 11.99999999998784 0.0
0.1 12.09999999998799 0.0
0.1 12.19999999998814 0.0
0.1 12.2999999999883 0.0
0.1 12.39999999998845 0.0
0.1 12.4999999999886 0.0
0.1 12.59999999998875 0.0
0.1 12.6999999999889 0.0
0.1 12.79999999998905 0.0
0.1 12.89999999998921 0.0
0.1 12.99999999998936 0.0
0.1 13.09999999998951 0.0
0.1 13.19999999998966 0.0
0.1 13.29999999998982 0.0
0.1 13.39999999998997 0.0
0.1 13.49999999999012 0.0
0.1 13.59999999999027 0.0
0.1 13.69999999999042 0.0
0.1 13.79999999999057 0.0
0.1 13.89999999999073 0.0
0.1 13.99999999999088 0.0
0.1 14.09999999999103 0.0
0.1 14.19999999999118 0.0
0.1 14.29999999999134 0.0
0.1 14.39999999999149 0.0
0.1 14.49999999999164 0.0
0.1 14.59999999999179 0.0
0.1 14.69999999999194 0.0
0.1 14.7999999999921 0.0
0.1 14.89999999999225 0.0
0.1 14.9999999999924 0.0
0.1 15.09999999999255 0.0
0.1 15.1999999999927 0.0
0.1 15.29999999999285 0.0
0.1 15.39999999999301 0.0
0.1 15.49999999999316 0.0
0.1 15.59999999999331 0.0
0.1 15.69999999999346 0.0
0.1 15.79999999999362 0.0
0.1 15.89999999999377 0.0
0.1 15.99999999999392 0.0
0.1 16.09999999999407 0.0
0.1 16.19999999999422 0.0
0.1 16.29999999999437 0.0
0.1 16.39999999999453 0.0
0.1 16.49999999999468 0.0
0.1 16.59999999999483 0.0
0.1 16.69999999999498 0.0
0.1 16.79999999999514 0.0
0.1 16.89999999999528 0.0
0.1 16.99999999999544 0.0
0.1 17.09999999999559 0.0
0.1 17.19999999999574 0.0
0.1 17.29999999999589 0.0
0.1 17.39999999999605 0.0
0.1 17.4999999999962 0.0
0.1 17.59999999999635 0.0
0.1 17.6999999999965 0.0
0.1 17.79999999999665 0.0
0.1 17.89999999999681 0.0
0.1 17.99999999999696 0.0
0.1 18.09999999999711 0.0
0.1 18.19999999999726 0.0
0.1 18.29999999999742 0.0
0.1 18.39999999999757 0.0
0.1 18.49999999999772 0.0
0.1 18.59999999999787 0.0
0.1 18.69999999999802 0.0
0.1 18.79999999999818 0.0
0.1 18.89999999999833 0.0
0.1 18.99999999999848 0.0
0.1 19.09999999999863 0.0
0.1 19.19999999999878 0.0
0.1 19.29999999999894 0.0
0.1 19.39999999999909 0.0
0.1 19.49999999999924 0.0
0.1 19.59999999999939 0.0
0.1 19.69999999999955 0.0
0.1 19.7999999999997 0.0
0.1 19.89999999999985 0.0
0.0 19.9 0.0
0.0 19.8 0.0
0.0 19.7 0.0
0.0 19.6 0.0
0.0 19.5 0.0
0.0 19.4 0.0
0.0 19.3 0.0
0.0 19.2 0.0
0.0 19.1 0.0
0.0 19.0 0.0
0.0 18.9 0.0
0.0 18.8 0.0
0.0 18.7 0.0
0.0 18.6 0.0
0.0 18.5 0.0
0.0 18.4 0.0
0.0 18.3 0.0
0.0 18.2 0.0
0.0 18.1 0.0
0.0 18.0 0.0
0.0 17.9 0.0
0.0 17.8 0.0
0.0 17.7 0.0
0.0 17.6 0.0
0.0 17.5 0.0
0.0 17.4 0.0
0.0 17.3 0.0
0.0 17.2 0.0
0.0 17.09999999999999 0.0
0.0 17.0 0.0
0.0 16.9 0.0
0.0 16.8 0.0
0.0 16.7 0.0
0.0 16.59999999999999 0.0
0.0 16.49999999999999 0.0
0.0 16.4 0.0
0.0 16.29999999999999 0.0
0.0 16.2 0.0
0.0 16.09999999999999 0.0
0.0 15.99999999999999 0.0
0.0 15.89999999999999 0.0
0.0 15.79999999999999 0.0
0.0 15.69999999999999 0.0
0.0 15.59999999999999 0.0
0.0 15.49999999999999 0.0
0.0 15.39999999999999 0.0
0.0 15.29999999999999 0.0
0.0 15.19999999999999 0.0
0.0 15.09999999999999 0.0
0.0 14.99999999999999 0.0
0.0 14.89999999999999 0.0
0.0 14.79999999999999 0.0
0.0 14.69999999999999 0.0
0.0 14.59999999999999 0.0
0.0 14.49999999999999 0.0
0.0 14.39999999999999 0.0
0.0 14.29999999999999 0.0
0.0 14.19999999999999 0.0
0.0 14.09999999999999 0.0
0.0 13.99999999999999 0.0
0.0 13.89999999999999 0.0
0.0 13.79999999999999 0.0
0.0 13.69999999999999 0.0
0.0 13.59999999999999 0.0
0.0 13.49999999999999 0.0
0.0 13.39999999999999 0.0
0.0 13.29999999999999 0.0
0.0 13.19999999999999 0.0
0.0 13.09999999999999 0.0
0.0 12.99999999999999 0.0
0.0 12.89999999999999 0.0
0.0 12.79999999999999 0.0
0.0 12.69999999999999 0.0
0.0 12.59999999999999 0.0
0.0 12.49999999999999 0.0
0.0 12.39999999999999 0.0
0.0 12.29999999999999 0.0
0.0 12.19999999999999 0.0
0.0 12.09999999999999 0.0
0.0 11.99999999999999 0.0
0.0 11.89999999999999 0.0
0.0 11.79999999999999 0.0
0.0 11.69999999999999 0.0
0.0 11.59999999999999 0.0
0.0 11.49999999999999 0.0
0.0 11.39999999999999 0.0
0.0 11.29999999999999 0.0
0.0 11.19999999999999 0.0
0.0 11.09999999999999 0.0
0.0 10.99999999999999 0.0
0.0 10.89999999999999 0.0
0.0 10.79999999999999 0.0
0.0 10.69999999999999 0.0
0.0 10.59999999999999 0.0
0.0 10.49999999999999 0.0
0.0 10.39999999999999 0.0
0.0 10.29999999999999 0.0
0.0 10.19999999999999 0.0
0.0 10.09999999999999 0.0
0.0 9.999999999999993 0.0
0.0 9.899999999999993 0.0
0.0 9.799999999999994 0.0
0.0 9.699999999999992 0.0
0.0 9.599999999999993 0.0
0.0 9.499999999999993 0.0
0.0 9.399999999999993 0.0
0.0 9.299999999999995 0.0
0.0 9.199999999999996 0.0
0.0 9.099999999999994 0.0
0.0 8.999999999999995 0.0
0.0 8.899999999999995 0.0
0.0 8.799999999999994 0.0
0.0 8.699999999999994 0.0
0.0 8.599999999999994 0.0
0.0 8.499999999999995 0.0
0.0 8.399999999999995 0.0
0.0 8.299999999999994 0.0
0.0 8.199999999999994 0.0
0.0 8.099999999999994 0.0
0.0 7.999999999999993 0.0
0.0 7.899999999999995 0.0
0.0 7.799999999999995 0.0
0.0 7.699999999999996 0.0
0.0 7.599999999999996 0.0
0.0 7.499999999999996 0.0
0.0 7.399999999999995 0.0
0.0 7.299999999999995 0.0
0.0 7.199999999999996 0.0
0.0 7.099999999999994 0.0
0.0 6.999999999999995 0.0
0.0 6.899999999999995 0.0
0.0 6.799999999999995 0.0
0.0 6.699999999999996 0.0
0.0 6.599999999999994 0.0
0.0 6.499999999999995 0.0
0.0 6.399999999999997 0.0
0.0 6.299999999999997 0.0
0.0 6.199999999999996 0.0
0.0 6.099999999999996 0.0
0.0 5.999999999999996 0.0
0.0 5.899999999999997 0.0
0.0 5.799999999999997 0.0
0.0 5.699999999999996 0.0
0.0 5.599999999999996 0.0
0.0 5.499999999999996 0.0
0.0 5.399999999999995 0.0
0.0 5.299999999999995 0.0
0.0 5.199999999999996 0.0
0.0 5.099999999999996 0.0
0.0 4.999999999999998 0.0
0.0 4.899999999999999 0.0
0.0 4.799999999999997 0.0
0.0 4.699999999999998 0.0
0.0 4.599999999999998 0.0
0.0 4.499999999999996 0.0
0.0 4.399999999999997 0.0
0.0 4.299999999999997 0.0
0.0 4.199999999999998 0.0
0.0 4.099999999999998 0.0
0.0 3.999999999999996 0.0
0.0 3.899999999999999 0.0
0.0 3.799999999999997 0.0
0.0 3.699999999999996 0.0
0.0 3.599999999999998 0.0
0.0 3.5 0.0
0.0 3.399999999999999 0.0
0.0 3.299999999999997 0.0
0.0 3.199999999999999 0.0
0.0 3.099999999999998 0.0
0.0 3.0 0.0
0.0 2.899999999999999 0.0
0.0 2.799999999999997 0.0
0.0 2.699999999999999 0.0
0.0 2.599999999999998 0.0
0.0 2.499999999999996 0.0
0.0 2.399999999999999 0.0
0.0 2.299999999999997 0.0
0.0 2.199999999999999 0.0
0.0 2.100000000000001 0.0
0.0 2.0 0.0
0.0 1.899999999999999 0.0
0.0 1.800000000000001 0.0
0.0 1.699999999999999 0.0
0.0 1.599999999999998 0.0
0.0 1.5 0.0
0.0 1.399999999999999 0.0
0.0 1.299999999999997 0.0
0.0 1.199999999999999 0.0
0.0 1.099999999999998 0.0
0.0 1.0 0.0
0.0 0.8999999999999986 0.0
0.0 0.8000000000000007 0.0
0.0 0.6999999999999993 0.0
0.0 0.6000000000000014 0.0
0.0 0.5 0.0
0.0 0.3999999999999986 0.0
0.0 0.3000000000000007 0.0
0.0 0.1999999999999993 0.0
[...]
POINT_DATA 804
VECTORS displacement double
0.0 0.0 0.0
0.0 0.0 0.0
0.0 -0.0017863064686748852 0.0
0.0 -0.0017863064686748878 0.0
0.0 0.0 0.0
0.0 0.0 0.0
0.0 -0.0017863064686748722 0.0
0.0 -0.0017863064686748783 0.0
0.0 -4.1266223154680976e-10 0.0
0.0 6.379667315998578e-10 0.0
0.0 -6.464118558005689e-10 0.0
0.0 3.2157313660705287e-10 0.0
0.0 6.157835954830334e-11 0.0
0.0 -5.406816937639511e-10 0.0
0.0 6.780471654545501e-10 0.0
0.0 -6.803378897304073e-10 0.0
0.0 2.1164170411767294e-10 0.0
0.0 1.7863981962429686e-10 0.0
0.0 -7.259807357304262e-10 0.0
0.0 7.350816920856931e-10 0.0
0.0 -6.691008173838125e-10 0.0
0.0 1.1740285960402376e-11 0.0
0.0 3.7775026128581787e-10 0.0
0.0 -9.252146641804659e-10 0.0
0.0 7.092194633951872e-10 0.0
0.0 -5.077844318128822e-10 0.0
0.0 -3.228335550738291e-10 0.0
0.0 6.022768969168107e-10 0.0
0.0 -9.947279433652012e-10 0.0
0.0 4.42723640215289e-10 0.0
0.0 -1.2243080384615054e-10 0.0
0.0 -7.173090865046133e-10 0.0
0.0 6.467034577691767e-10 0.0
0.0 -7.0625639177143e-10 0.0
0.0 -1.6887561431321114e-10 0.0
0.0 3.725986824262624e-10 0.0
0.0 -8.717804867030223e-10 0.0
0.0 1.941783241822544e-10 0.0
0.0 5.592033474088543e-11 0.0
0.0 -9.147919578798455e-10 0.0
0.0 5.191205201468943e-10 0.0
0.0 -3.570416853751244e-10 0.0
0.0 -8.343883932265926e-10 0.0
0.0 8.793234104282384e-10 0.0
0.0 -1.0785684597863917e-09 0.0
0.0 -2.440174217246404e-10 0.0
0.0 7.779103442290205e-10 0.0
0.0 -1.673219817565879e-09 0.0
0.0 6.895061108242665e-10 0.0
0.0 -1.3911939169080037e-11 0.0
0.0 -1.5563618283317217e-09 0.0
0.0 1.2307169118570132e-09 0.0
0.0 -8.859457181334907e-10 0.0
0.0 -9.980958132624231e-10 0.0
0.0 1.2490076902467534e-09 0.0
0.0 -1.4046417946112973e-09 0.0
0.0 -5.539369192430396e-10 0.0
0.0 1.255289220974171e-09 0.0
0.0 -1.9430970581470916e-09 0.0
0.0 -1.177095041469013e-11 0.0
0.0 1.1934455187398132e-09 0.0
0.0 -2.6034396977160097e-09 0.0
0.0 8.983676937253849e-10 0.0
0.0 6.375853739023171e-10 0.0
0.0 -2.865383645757745e-09 0.0
0.0 1.6743115730638405e-09 0.0
0.0 -6.185863419637921e-11 0.0
0.0 -2.8195226298526532e-09 0.0
0.0 2.107235097826145e-09 0.0
0.0 -4.4739097183127347e-10 0.0
0.0 -3.0433296053927332e-09 0.0
0.0 2.7374655806484784e-09 0.0
0.0 -9.043862842510065e-10 0.0
0.0 -3.340804141567325e-09 0.0
0.0 3.5263308698891757e-09 0.0
0.0 -1.520919948383584e-09 0.0
0.0 -3.474071385268403e-09 0.0
0.0 4.040305915549518e-09 0.0
0.0 -1.6982390769477273e-09 0.0
0.0 -4.0423630193851164e-09 0.0
0.0 4.6613600875565816e-09 0.0
0.0 -1.5049736339948147e-09 0.0
0.0 -5.18129870892238e-09 0.0
0.0 5.55088415552224e-09 0.0
0.0 -1.1143131484699492e-09 0.0
0.0 -6.5164157709355596e-09 0.0
0.0 6.013049372079209e-09 0.0
0.0 2.495641918738611e-10 0.0
0.0 -8.424725401502725e-09 0.0
0.0 5.842395735383582e-09 0.0
0.0 2.945390786052383e-09 0.0
0.0 -1.0832701635647252e-08 0.0
0.0 4.638895633850672e-09 0.0
0.0 6.808333223361203e-09 0.0
0.0 -1.245492214033516e-08 0.0
0.0 8.656139955184092e-10 0.0
0.0 1.2025474195356047e-08 0.0
0.0 -1.1951031117330538e-08 0.0
0.0 -6.300374592214383e-09 0.0
0.0 1.708065319317015e-08 0.0
0.0 -6.975676403998356e-09 0.0
0.0 -1.6277423621265173e-08 0.0
0.0 1.7804389463195077e-08 0.0
0.0 5.3062587126580184e-09 0.0
0.0 -2.5973659866759897e-08 0.0
0.0 8.87144103041593e-09 0.0
0.0 2.3390021493832533e-08 0.0
0.0 -2.6281137197236998e-08 0.0
0.0 -1.3850434612471044e-08 0.0
0.0 3.716764338062986e-08 0.0
0.0 -5.166185928254966e-09 0.0
0.0 -4.343360620539547e-08 0.0
0.0 2.6210474641338123e-08 0.0
0.0 3.797492357638565e-08 0.0
0.0 -5.0308285114766424e-08 0.0
0.0 -2.617672629942759e-08 0.0
0.0 6.992312568990876e-08 0.0
0.0 3.936276774287246e-09 0.0
0.0 -8.875677357093017e-08 0.0
0.0 2.238562870957133e-08 0.0
0.0 1.0116923781096645e-07 0.0
0.0 -5.656619699145324e-08 0.0
0.0 -1.1441481685008676e-07 0.0
0.0 9.350620993210463e-08 0.0
0.0 1.2555819941521552e-07 0.0
0.0 -1.3884247298953892e-07 0.0
0.0 -1.4567825089201211e-07 0.0
0.0 1.8867830998450944e-07 0.0
0.0 1.77348295229652e-07 0.0
0.0 -2.494851516168575e-07 0.0
0.0 -2.399631962074489e-07 0.0
0.0 3.1284951337872164e-07 0.0
0.0 3.49950391343683e-07 0.0
0.0 -3.7203359416776667e-07 0.0
0.0 -5.452636741541594e-07 0.0
0.0 3.820053742271791e-07 0.0
0.0 8.594947988864693e-07 0.0
0.0 -2.564004008011134e-07 0.0
0.0 -1.3169657806554498e-06 0.0
0.0 -2.007736126936813e-07 0.0
0.0 1.821081215781085e-06 0.0
0.0 1.2921199432766227e-06 0.0
0.0 -1.9583196932073923e-06 0.0
0.0 -3.313036869341996e-06 0.0
0.0 5.917111116725897e-07 0.0
0.0 5.810724957768427e-06 0.0
0.0 4.293652082347705e-06 0.0
0.0 -5.611574555831397e-06 0.0
0.0 -1.372813695152609e-05 0.0
0.0 -6.326946002844126e-06 0.0
0.0 1.7482890891237965e-05 0.0
0.0 3.613492995277283e-05 0.0
0.0 1.253121346827804e-05 0.0
0.0 -8.65003801007616e-05 0.0
0.0 -0.00027174230798427605 0.0
0.0 -0.0005256883568030305 0.0
0.0 -0.0008110417189769241 0.0
0.0 -0.0010865806005752826 0.0
0.0 -0.0013210866362246085 0.0
0.0 -0.0014997268906596097 0.0
0.0 -0.0016227501473154054 0.0
0.0 -0.0016998487434639656 0.0
0.0 -0.0017440076194754394 0.0
0.0 -0.0017671810725438258 0.0
0.0 -0.0017783337924000802 0.0
0.0 -0.0017832539289788865 0.0
0.0 -0.0017852390783871686 0.0
0.0 -0.0017859687140748832 0.0
0.0 -0.0017862110275323666 0.0
0.0 -0.001786283086320757 0.0
0.0 -0.001786301655661474 0.0
0.0 -0.0017863058348827755 0.0
0.0 -0.0017863063869227157 0.0
0.0 -0.001786306552156177 0.0
0.0 -0.0017863064206338555 0.0
0.0 -0.001786306527282501 0.0
0.0 -0.0017863064135254997 0.0
0.0 -0.0017863065225524944 0.0
0.0 -0.0017863064180934603 0.0
0.0 -0.001786306518830999 0.0
0.0 -0.0017863064240569364 0.0
0.0 -0.0017863065141210694 0.0
0.0 -0.0017863064306531124 0.0
0.0 -0.001786306508827103 0.0
0.0 -0.00178630643753329 0.0
0.0 -0.001786306503289205 0.0
0.0 -0.0017863064443955912 0.0
0.0 -0.0017863064977770985 0.0
0.0 -0.001786306451002295 0.0
0.0 -0.001786306492497741 0.0
0.0 -0.0017863064571755488 0.0
0.0 -0.001786306487601675 0.0
0.0 -0.0017863064627898263 0.0
0.0 -0.0017863064831916797 0.0
0.0 -0.0017863064677627232 0.0
0.0 -0.0017863064793321958 0.0
0.0 -0.0017863064720454634 0.0
0.0 -0.0017863064760586694 0.0
0.0 -0.001786306475613797 0.0
0.0 -0.0017863064733861774 0.0
0.0 -0.0017863064784599232 0.0
0.0 -0.0017863064713168524 0.0
0.0 -0.0017863064805858095 0.0
0.0 -0.0017863064698460719 0.0
0.0 -0.0017863064819975704 0.0
0.0 -0.0017863064689671749 0.0
0.0 -0.0017863064827015245 0.0
0.0 -0.001786306482701532 0.0
0.0 -0.0017863064689671894 0.0
0.0 -0.001786306481997571 0.0
0.0 -0.0017863064698460881 0.0
0.0 -0.0017863064805858188 0.0
0.0 -0.0017863064713168483 0.0
0.0 -0.0017863064784599345 0.0
0.0 -0.0017863064733861643 0.0
0.0 -0.0017863064756137841 0.0
0.0 -0.0017863064760586665 0.0
0.0 -0.0017863064720454738 0.0
0.0 -0.0017863064793321869 0.0
0.0 -0.0017863064677627284 0.0
0.0 -0.0017863064831916604 0.0
0.0 -0.001786306462789818 0.0
0.0 -0.0017863064876016794 0.0
0.0 -0.0017863064571755445 0.0
0.0 -0.0017863064924977421 0.0
0.0 -0.0017863064510022914 0.0
0.0 -0.0017863064977770848 0.0
0.0 -0.001786306444395601 0.0
0.0 -0.0017863065032891888 0.0
0.0 -0.0017863064375332565 0.0
0.0 -0.0017863065088270967 0.0
0.0 -0.0017863064306531155 0.0
0.0 -0.0017863065141210646 0.0
0.0 -0.0017863064240569296 0.0
0.0 -0.0017863065188309984 0.0
0.0 -0.001786306418093449 0.0
0.0 -0.001786306522552484 0.0
0.0 -0.0017863064135254967 0.0
0.0 -0.0017863065272825081 0.0
0.0 -0.0017863064206338492 0.0
0.0 -0.0017863065521561763 0.0
0.0 -0.0017863063869226984 0.0
0.0 -0.001786305834882772 0.0
0.0 -0.0017863016556614662 0.0
0.0 -0.001786283086320748 0.0
0.0 -0.0017862110275323907 0.0
0.0 -0.0017859687140749068 0.0
0.0 -0.001785239078387245 0.0
0.0 -0.001783253928979097 0.0
0.0 -0.0017783337924005542 0.0
0.0 -0.0017671810725448907 0.0
0.0 -0.0017440076194776201 0.0
0.0 -0.0016998487434680472 0.0
0.0 -0.0016227501473223978 0.0
0.0 -0.0014997268906705135 0.0
0.0 -0.0013210866362400593 0.0
0.0 -0.0010865806005949355 0.0
0.0 -0.0008110417189991164 0.0
0.0 -0.0005256883568248612 0.0
0.0 -0.00027174230800237285 0.0
0.0 -8.650038011249693e-05 0.0
0.0 1.2531213463467369e-05 0.0
0.0 3.613492995311484e-05 0.0
0.0 1.7482890893544368e-05 0.0
0.0 -6.3269460013270825e-06 0.0
0.0 -1.3728136951710282e-05 0.0
0.0 -5.611574556871796e-06 0.0
0.0 4.2936520817456204e-06 0.0
0.0 5.810724958043502e-06 0.0
0.0 5.917111122275307e-07 0.0
0.0 -3.3130368692114085e-06 0.0
0.0 -1.9583196935202533e-06 0.0
0.0 1.2921199430478217e-06 0.0
0.0 1.82108121590515e-06 0.0
0.0 -2.007736124753785e-07 0.0
0.0 -1.3169657806677671e-06 0.0
0.0 -2.564004009700919e-07 0.0
0.0 8.594947988531662e-07 0.0
0.0 3.8200537434059514e-07 0.0
0.0 -5.452636741011681e-07 0.0
0.0 -3.720335942485763e-07 0.0
0.0 3.4995039129109576e-07 0.0
0.0 3.128495134336371e-07 0.0
0.0 -2.399631961609847e-07 0.0
0.0 -2.4948515166041473e-07 0.0
0.0 1.7734829519034892e-07 0.0
0.0 1.8867831001770942e-07 0.0
0.0 -1.4567825086046326e-07 0.0
0.0 -1.388424730146091e-07 0.0
0.0 1.2555819939465764e-07 0.0
0.0 9.350620995378628e-08 0.0
0.0 -1.1441481683664125e-07 0.0
0.0 -5.6566197013100217e-08 0.0
0.0 1.0116923780191798e-07 0.0
0.0 2.2385628733670855e-08 0.0
0.0 -8.875677357304153e-08 0.0
0.0 3.936276757662344e-09 0.0
0.0 6.992312569397716e-08 0.0
0.0 -2.617672628606597e-08 0.0
0.0 -5.030828512113355e-08 0.0
0.0 3.7974923568362e-08 0.0
0.0 2.6210474649117892e-08 0.0
0.0 -4.343360620010519e-08 0.0
0.0 -5.1661859395313174e-09 0.0
0.0 3.716764337693209e-08 0.0
0.0 -1.3850434601825453e-08 0.0
0.0 -2.628113719919311e-08 0.0
0.0 2.3390021490410745e-08 0.0
0.0 8.871441033514037e-09 0.0
0.0 -2.5973659867878837e-08 0.0
0.0 5.3062587050247395e-09 0.0
0.0 1.7804389461436137e-08 0.0
0.0 -1.6277423620257895e-08 0.0
0.0 -6.9756764112698645e-09 0.0
0.0 1.7080653192621378e-08 0.0
0.0 -6.300374586363808e-09 0.0
0.0 -1.1951031120468218e-08 0.0
0.0 1.2025474193078888e-08 0.0
0.0 8.656139989229759e-10 0.0
0.0 -1.2454922140878644e-08 0.0
0.0 6.808333219566079e-09 0.0
0.0 4.638895635260915e-09 0.0
0.0 -1.0832701636272872e-08 0.0
0.0 2.9453907845682105e-09 0.0
0.0 5.842395737780698e-09 0.0
0.0 -8.424725399314068e-09 0.0
0.0 2.4956419213311544e-10 0.0
0.0 6.013049374798164e-09 0.0
0.0 -6.51641577057437e-09 0.0
0.0 -1.1143131512560471e-09 0.0
0.0 5.550884156482458e-09 0.0
0.0 -5.181298708148702e-09 0.0
0.0 -1.5049736353706377e-09 0.0
0.0 4.6613600887456e-09 0.0
0.0 -4.042363018107643e-09 0.0
0.0 -1.698239077979894e-09 0.0
0.0 4.04030591748116e-09 0.0
0.0 -3.474071383903081e-09 0.0
0.0 -1.52091994831867e-09 0.0
0.0 3.5263308707138094e-09 0.0
0.0 -3.340804142433877e-09 0.0
0.0 -9.043862841990889e-10 0.0
0.0 2.737465582731746e-09 0.0
0.0 -3.043329603700822e-09 0.0
0.0 -4.4739097131635834e-10 0.0
0.0 2.107235099221998e-09 0.0
0.0 -2.8195226291036035e-09 0.0
0.0 -6.185863503361759e-11 0.0
0.0 1.6743115736065089e-09 0.0
0.0 -2.8653836449328113e-09 0.0
0.0 6.37585373451848e-10 0.0
0.0 8.983676940883289e-10 0.0
0.0 -2.603439698182252e-09 0.0
0.0 1.1934455176230024e-09 0.0
0.0 -1.177095025659987e-11 0.0
0.0 -1.9430970586255155e-09 0.0
0.0 1.255289220430952e-09 0.0
0.0 -5.539369193907166e-10 0.0
0.0 -1.404641795078795e-09 0.0
0.0 1.2490076903656524e-09 0.0
0.0 -9.980958131885336e-10 0.0
0.0 -8.859457178911086e-10 0.0
0.0 1.230716912617475e-09 0.0
0.0 -1.5563618283455663e-09 0.0
0.0 -1.3911939303850904e-11 0.0
0.0 6.895061111415658e-10 0.0
0.0 -1.67321981705199e-09 0.0
0.0 7.779103445498997e-10 0.0
0.0 -2.4401742170295533e-10 0.0
0.0 -1.0785684602940473e-09 0.0
0.0 8.793234109811029e-10 0.0
0.0 -8.343883924650619e-10 0.0
0.0 -3.5704168561066226e-10 0.0
0.0 5.191205202148895e-10 0.0
0.0 -9.147919577156405e-10 0.0
0.0 5.592033422940753e-11 0.0
0.0 1.9417832333705812e-10 0.0
0.0 -8.71780487062973e-10 0.0
0.0 3.725986829647016e-10 0.0
0.0 -1.688756141107484e-10 0.0
0.0 -7.062563920688812e-10 0.0
0.0 6.467034573074562e-10 0.0
0.0 -7.173090866342678e-10 0.0
0.0 -1.2243080344705376e-10 0.0
0.0 4.427236403696092e-10 0.0
0.0 -9.947279441515772e-10 0.0
0.0 6.022768962954306e-10 0.0
0.0 -3.228335551947249e-10 0.0
0.0 -5.07784431643756e-10 0.0
0.0 7.092194632786621e-10 0.0
0.0 -9.25214664254869e-10 0.0
0.0 3.777502617141845e-10 0.0
0.0 1.1740286361049477e-11 0.0
0.0 -6.69100817209657e-10 0.0
0.0 7.350816918225901e-10 0.0
0.0 -7.259807360497935e-10 0.0
0.0 1.7863981922306807e-10 0.0
0.0 2.1164170398082997e-10 0.0
0.0 -6.803378898669354e-10 0.0
0.0 6.78047165685338e-10 0.0
0.0 -5.406816932233235e-10 0.0
0.0 6.1578359319908e-11 0.0
0.0 3.2157313618993717e-10 0.0
0.0 -6.46411855727595e-10 0.0
0.0 6.379667319963365e-10 0.0
0.0 -4.1266223116524727e-10 0.0
0.0 -4.126622315317462e-10 0.0
0.0 6.379667313627927e-10 0.0
0.0 -6.464118561105305e-10 0.0
0.0 3.2157313620059436e-10 0.0
0.0 6.157835939384981e-11 0.0
0.0 -5.406816934392801e-10 0.0
0.0 6.780471657272596e-10 0.0
0.0 -6.803378897884927e-10 0.0
0.0 2.1164170398777544e-10 0.0
0.0 1.7863981961391882e-10 0.0
0.0 -7.259807358375828e-10 0.0
0.0 7.350816922660948e-10 0.0
0.0 -6.691008166240361e-10 0.0
0.0 1.1740286040321218e-11 0.0
0.0 3.777502610781338e-10 0.0
0.0 -9.252146642072586e-10 0.0
0.0 7.092194633483155e-10 0.0
0.0 -5.077844318172737e-10 0.0
0.0 -3.2283355512227867e-10 0.0
0.0 6.022768966155783e-10 0.0
0.0 -9.947279439506291e-10 0.0
0.0 4.427236406003663e-10 0.0
0.0 -1.224308028371993e-10 0.0
0.0 -7.173090857786225e-10 0.0
0.0 6.467034579586523e-10 0.0
0.0 -7.062563920061948e-10 0.0
0.0 -1.688756149215227e-10 0.0
0.0 3.7259868259105466e-10 0.0
0.0 -8.717804866492689e-10 0.0
0.0 1.9417832357791836e-10 0.0
0.0 5.592033442440295e-11 0.0
0.0 -9.14791957811059e-10 0.0
0.0 5.19120520189267e-10 0.0
0.0 -3.5704168548499435e-10 0.0
0.0 -8.343883932547974e-10 0.0
0.0 8.793234104462561e-10 0.0
0.0 -1.0785684594859096e-09 0.0
0.0 -2.4401742102627635e-10 0.0
0.0 7.779103440125005e-10 0.0
0.0 -1.6732198178115522e-09 0.0
0.0 6.895061108214119e-10 0.0
0.0 -1.3911939203986933e-11 0.0
0.0 -1.5563618278924818e-09 0.0
0.0 1.2307169120873598e-09 0.0
0.0 -8.859457184641261e-10 0.0
0.0 -9.980958137467858e-10 0.0
0.0 1.2490076904747792e-09 0.0
0.0 -1.404641794434887e-09 0.0
0.0 -5.539369196372875e-10 0.0
0.0 1.2552892213606353e-09 0.0
0.0 -1.943097057405456e-09 0.0
0.0 -1.1770950045415952e-11 0.0
0.0 1.193445518729445e-09 0.0
0.0 -2.603439696964448e-09 0.0
0.0 8.983676937016345e-10 0.0
0.0 6.375853731023717e-10 0.0
0.0 -2.8653836455105184e-09 0.0
0.0 1.6743115729005239e-09 0.0
0.0 -6.18586350135416e-11 0.0
0.0 -2.8195226298317144e-09 0.0
0.0 2.107235098644234e-09 0.0
0.0 -4.473909713138382e-10 0.0
0.0 -3.0433296053273756e-09 0.0
0.0 2.7374655802139542e-09 0.0
0.0 -9.043862838564856e-10 0.0
0.0 -3.3408041413057994e-09 0.0
0.0 3.5263308711942814e-09 0.0
0.0 -1.5209199471928995e-09 0.0
0.0 -3.4740713851064388e-09 0.0
0.0 4.040305915920213e-09 0.0
0.0 -1.6982390761692837e-09 0.0
0.0 -4.0423630190234904e-09 0.0
0.0 4.661360087891404e-09 0.0
0.0 -1.5049736324625616e-09 0.0
0.0 -5.18129870886156e-09 0.0
0.0 5.5508841557941105e-09 0.0
0.0 -1.1143131476563217e-09 0.0
0.0 -6.516415770309726e-09 0.0
0.0 6.013049374312669e-09 0.0
0.0 2.4956419484972945e-10 0.0
0.0 -8.424725402066814e-09 0.0
0.0 5.8423957331331155e-09 0.0
0.0 2.9453907849727973e-09 0.0
0.0 -1.0832701635954726e-08 0.0
0.0 4.638895634233927e-09 0.0
0.0 6.8083332246119915e-09 0.0
0.0 -1.2454922138687958e-08 0.0
0.0 8.656139952523781e-10 0.0
0.0 1.2025474194945515e-08 0.0
0.0 -1.1951031116233437e-08 0.0
0.0 -6.300374589370054e-09 0.0
0.0 1.7080653192294913e-08 0.0
0.0 -6.975676404797623e-09 0.0
0.0 -1.6277423618864287e-08 0.0
0.0 1.7804389460792392e-08 0.0
0.0 5.306258711649367e-09 0.0
0.0 -2.5973659865940634e-08 0.0
0.0 8.871441030259647e-09 0.0
0.0 2.339002149423227e-08 0.0
0.0 -2.6281137196171755e-08 0.0
0.0 -1.3850434610384726e-08 0.0
0.0 3.716764337857587e-08 0.0
0.0 -5.166185925253338e-09 0.0
0.0 -4.343360620240206e-08 0.0
0.0 2.6210474643309377e-08 0.0
0.0 3.7974923578788624e-08 0.0
0.0 -5.030828511360711e-08 0.0
0.0 -2.617672629935342e-08 0.0
0.0 6.992312568943283e-08 0.0
0.0 3.936276776488305e-09 0.0
0.0 -8.87567735719775e-08 0.0
0.0 2.2385628710909713e-08 0.0
0.0 1.011692378089902e-07 0.0
0.0 -5.656619699011437e-08 0.0
0.0 -1.144148168493647e-07 0.0
0.0 9.350620993028608e-08 0.0
0.0 1.255581994152359e-07 0.0
0.0 -1.388424729881828e-07 0.0
0.0 -1.4567825089176597e-07 0.0
0.0 1.8867830998484103e-07 0.0
0.0 1.7734829523000374e-07 0.0
0.0 -2.4948515162233314e-07 0.0
0.0 -2.39963196211911e-07 0.0
0.0 3.128495133784587e-07 0.0
0.0 3.4995039134512164e-07 0.0
0.0 -3.720335941732697e-07 0.0
0.0 -5.452636741535669e-07 0.0
0.0 3.8200537422958793e-07 0.0
0.0 8.594947988968594e-07 0.0
0.0 -2.564004007986351e-07 0.0
0.0 -1.316965780655462e-06 0.0
0.0 -2.0077361269144797e-07 0.0
0.0 1.8210812157830993e-06 0.0
0.0 1.2921199432804589e-06 0.0
0.0 -1.9583196932093147e-06 0.0
0.0 -3.3130368693381793e-06 0.0
0.0 5.917111116630093e-07 0.0
0.0 5.810724957771939e-06 0.0
0.0 4.293652082351516e-06 0.0
0.0 -5.611574555832655e-06 0.0
0.0 -1.3728136951527147e-05 0.0
0.0 -6.326946002847288e-06 0.0
0.0 1.7482890891250738e-05 0.0
0.0 3.6134929952788376e-05 0.0
0.0 1.253121346827316e-05 0.0
0.0 -8.650038010075537e-05 0.0
0.0 -0.00027174230798426326 0.0
0.0 -0.0005256883568030276 0.0
0.0 -0.0008110417189769257 0.0
0.0 -0.0010865806005752976 0.0
0.0 -0.0013210866362246103 0.0
0.0 -0.0014997268906596004 0.0
0.0 -0.00162275014731541 0.0
0.0 -0.0016998487434639648 0.0
0.0 -0.0017440076194754578 0.0
0.0 -0.0017671810725438351 0.0
0.0 -0.0017783337924000794 0.0
0.0 -0.0017832539289789073 0.0
0.0 -0.001785239078387187 0.0
0.0 -0.0017859687140748819 0.0
0.0 -0.0017862110275323798 0.0
0.0 -0.0017862830863207549 0.0
0.0 -0.001786301655661469 0.0
0.0 -0.0017863058348827718 0.0
0.0 -0.0017863063869227088 0.0
0.0 -0.0017863065521561859 0.0
0.0 -0.0017863064206338395 0.0
0.0 -0.0017863065272825046 0.0
0.0 -0.001786306413525501 0.0
0.0 -0.0017863065225524968 0.0
0.0 -0.0017863064180934525 0.0
0.0 -0.0017863065188309882 0.0
0.0 -0.0017863064240569168 0.0
0.0 -0.0017863065141210661 0.0
0.0 -0.0017863064306531038 0.0
0.0 -0.0017863065088270969 0.0
0.0 -0.0017863064375332638 0.0
0.0 -0.001786306503289192 0.0
0.0 -0.0017863064443955912 0.0
0.0 -0.0017863064977770835 0.0
0.0 -0.0017863064510022868 0.0
0.0 -0.0017863064924977306 0.0
0.0 -0.001786306457175542 0.0
0.0 -0.0017863064876016796 0.0
0.0 -0.0017863064627898226 0.0
0.0 -0.0017863064831916732 0.0
0.0 -0.0017863064677627262 0.0
0.0 -0.0017863064793321917 0.0
0.0 -0.0017863064720454766 0.0
0.0 -0.0017863064760586704 0.0
0.0 -0.001786306475613788 0.0
0.0 -0.0017863064733861782 0.0
0.0 -0.001786306478459934 0.0
0.0 -0.0017863064713168478 0.0
0.0 -0.0017863064805858106 0.0
0.0 -0.0017863064698460751 0.0
0.0 -0.0017863064819975544 0.0
0.0 -0.001786306468967181 0.0
0.0 -0.0017863064827015223 0.0
0.0 -0.0017863064827015234 0.0
0.0 -0.0017863064689671786 0.0
0.0 -0.0017863064819975663 0.0
0.0 -0.0017863064698460619 0.0
0.0 -0.0017863064805858097 0.0
0.0 -0.0017863064713168546 0.0
0.0 -0.001786306478459921 0.0
0.0 -0.001786306473386169 0.0
0.0 -0.0017863064756137837 0.0
0.0 -0.0017863064760586659 0.0
0.0 -0.0017863064720454716 0.0
0.0 -0.0017863064793321932 0.0
0.0 -0.001786306467762724 0.0
0.0 -0.0017863064831916756 0.0
0.0 -0.001786306462789816 0.0
0.0 -0.0017863064876016642 0.0
0.0 -0.001786306457175541 0.0
0.0 -0.001786306492497737 0.0
0.0 -0.0017863064510022946 0.0
0.0 -0.0017863064977771065 0.0
0.0 -0.001786306444395601 0.0
0.0 -0.001786306503289204 0.0
0.0 -0.0017863064375332736 0.0
0.0 -0.0017863065088271027 0.0
0.0 -0.001786306430653114 0.0
0.0 -0.0017863065141210637 0.0
0.0 -0.0017863064240569316 0.0
0.0 -0.0017863065188309989 0.0
0.0 -0.0017863064180934566 0.0
0.0 -0.0017863065225524962 0.0
0.0 -0.0017863064135254995 0.0
0.0 -0.001786306527282502 0.0
0.0 -0.001786306420633851 0.0
0.0 -0.0017863065521561798 0.0
0.0 -0.0017863063869227073 0.0
0.0 -0.0017863058348827677 0.0
0.0 -0.001786301655661474 0.0
0.0 -0.0017862830863207616 0.0
0.0 -0.0017862110275323844 0.0
0.0 -0.0017859687140748999 0.0
0.0 -0.0017852390783872425 0.0
0.0 -0.0017832539289790947 0.0
0.0 -0.0017783337924005536 0.0
0.0 -0.0017671810725448916 0.0