# vtk DataFile Version 2.0
data_216
ASCII
DATASET UNSTRUCTURED_GRID
POINTS 804 float
0.0 0.0 0.0
0.1 0.0 0.0
0.1 20.0 0.0
0.0 20.0 0.0
0.0 0.0 -0.1
0.1 0.0 -0.1
0.1 20.0 -0.1
0.0 20.0 -0.1
0.1 0.09999999999992462 0.0
0.1 0.1999999999998517 0.0
0.1 0.2999999999997818 0.0
0.1 0.399999999999712 0.0
0.1 0.4999999999996377 0.0
0.1 0.5999999999995541 0.0
0.1 0.6999999999994495 0.0
0.1 0.7999999999993355 0.0
0.1 0.8999999999992101 0.0
0.1 0.999999999999102 0.0
0.1 1.099999999999006 0.0
0.1 1.199999999998936 0.0
0.1 1.299999999998867 0.0
0.1 1.399999999998797 0.0
0.1 1.499999999998727 0.0
0.1 1.599999999998657 0.0
0.1 1.699999999998587 0.0
0.1 1.799999999998517 0.0
0.1 1.899999999998447 0.0
0.1 1.999999999998378 0.0
0.1 2.099999999998308 0.0
0.1 2.199999999998238 0.0
0.1 2.299999999998168 0.0
0.1 2.399999999998067 0.0
0.1 2.499999999997942 0.0
0.1 2.599999999997706 0.0
0.1 2.699999999997444 0.0
0.1 2.799999999997153 0.0
0.1 2.899999999996861 0.0
0.1 2.999999999996569 0.0
0.1 3.099999999996277 0.0
0.1 3.199999999995984 0.0
0.1 3.299999999995693 0.0
0.1 3.399999999995401 0.0
0.1 3.499999999995108 0.0
0.1 3.599999999994816 0.0
0.1 3.699999999994525 0.0
0.1 3.799999999994232 0.0
0.1 3.89999999999394 0.0
0.1 3.999999999993648 0.0
0.1 4.099999999993356 0.0
0.1 4.199999999993064 0.0
0.1 4.299999999992772 0.0
0.1 4.399999999992479 0.0
0.1 4.499999999992188 0.0
0.1 4.599999999991895 0.0
0.1 4.699999999991603 0.0
0.1 4.799999999991311 0.0
0.1 4.899999999991019 0.0
0.1 4.999999999990727 0.0
0.1 5.099999999990436 0.0
0.1 5.199999999990144 0.0
0.1 5.299999999989851 0.0
0.1 5.399999999989559 0.0
0.1 5.499999999989267 0.0
0.1 5.599999999988975 0.0
0.1 5.699999999988683 0.0
0.1 5.799999999988391 0.0
0.1 5.899999999988099 0.0
0.1 5.999999999987806 0.0
0.1 6.099999999987515 0.0
0.1 6.199999999987222 0.0
0.1 6.299999999986929 0.0
0.1 6.399999999986638 0.0
0.1 6.499999999986345 0.0
0.1 6.599999999986054 0.0
0.1 6.699999999985762 0.0
0.1 6.79999999998547 0.0
0.1 6.899999999985177 0.0
0.1 6.999999999984885 0.0
0.1 7.099999999984593 0.0
0.1 7.199999999984302 0.0
0.1 7.299999999984009 0.0
0.1 7.399999999983717 0.0
0.1 7.499999999983426 0.0
0.1 7.599999999983132 0.0
0.1 7.699999999982841 0.0
0.1 7.799999999982549 0.0
0.1 7.899999999982256 0.0
0.1 7.999999999982034 0.0
0.1 8.099999999981964 0.0
0.1 8.199999999982062 0.0
0.1 8.299999999982214 0.0
0.1 8.399999999982366 0.0
0.1 8.499999999982517 0.0
0.1 8.59999999998267 0.0
0.1 8.699999999982822 0.0
0.1 8.799999999982973 0.0
0.1 8.899999999983125 0.0
0.1 8.999999999983277 0.0
0.1 9.09999999998343 0.0
0.1 9.19999999998358 0.0
0.1 9.299999999983733 0.0
0.1 9.399999999983885 0.0
0.1 9.499999999984038 0.0
0.1 9.599999999984188 0.0
0.1 9.69999999998434 0.0
0.1 9.799999999984493 0.0
0.1 9.899999999984646 0.0
0.1 9.999999999984798 0.0
0.1 10.09999999998495 0.0
0.1 10.1999999999851 0.0
0.1 10.29999999998525 0.0
0.1 10.39999999998541 0.0
0.1 10.49999999998556 0.0
0.1 10.59999999998571 0.0
0.1 10.69999999998586 0.0
0.1 10.79999999998601 0.0
0.1 10.89999999998616 0.0
0.1 10.99999999998632 0.0
0.1 11.09999999998647 0.0
0.1 11.19999999998662 0.0
0.1 11.29999999998677 0.0
0.1 11.39999999998693 0.0
0.1 11.49999999998708 0.0
0.1 11.59999999998723 0.0
0.1 11.69999999998738 0.0
0.1 11.79999999998754 0.0
0.1 11.89999999998769 0.0
0.1 11.99999999998784 0.0
0.1 12.09999999998799 0.0
0.1 12.19999999998814 0.0
0.1 12.2999999999883 0.0
0.1 12.39999999998845 0.0
0.1 12.4999999999886 0.0
0.1 12.59999999998875 0.0
0.1 12.6999999999889 0.0
0.1 12.79999999998905 0.0
0.1 12.89999999998921 0.0
0.1 12.99999999998936 0.0
0.1 13.09999999998951 0.0
0.1 13.19999999998966 0.0
0.1 13.29999999998982 0.0
0.1 13.39999999998997 0.0
0.1 13.49999999999012 0.0
0.1 13.59999999999027 0.0
0.1 13.69999999999042 0.0
0.1 13.79999999999057 0.0
0.1 13.89999999999073 0.0
0.1 13.99999999999088 0.0
0.1 14.09999999999103 0.0
0.1 14.19999999999118 0.0
0.1 14.29999999999134 0.0
0.1 14.39999999999149 0.0
0.1 14.49999999999164 0.0
0.1 14.59999999999179 0.0
0.1 14.69999999999194 0.0
0.1 14.7999999999921 0.0
0.1 14.89999999999225 0.0
0.1 14.9999999999924 0.0
0.1 15.09999999999255 0.0
0.1 15.1999999999927 0.0
0.1 15.29999999999285 0.0
0.1 15.39999999999301 0.0
0.1 15.49999999999316 0.0
0.1 15.59999999999331 0.0
0.1 15.69999999999346 0.0
0.1 15.79999999999362 0.0
0.1 15.89999999999377 0.0
0.1 15.99999999999392 0.0
0.1 16.09999999999407 0.0
0.1 16.19999999999422 0.0
0.1 16.29999999999437 0.0
0.1 16.39999999999453 0.0
0.1 16.49999999999468 0.0
0.1 16.59999999999483 0.0
0.1 16.69999999999498 0.0
0.1 16.79999999999514 0.0
0.1 16.89999999999528 0.0
0.1 16.99999999999544 0.0
0.1 17.09999999999559 0.0
0.1 17.19999999999574 0.0
0.1 17.29999999999589 0.0
0.1 17.39999999999605 0.0
0.1 17.4999999999962 0.0
0.1 17.59999999999635 0.0
0.1 17.6999999999965 0.0
0.1 17.79999999999665 0.0
0.1 17.89999999999681 0.0
0.1 17.99999999999696 0.0
0.1 18.09999999999711 0.0
0.1 18.19999999999726 0.0
0.1 18.29999999999742 0.0
0.1 18.39999999999757 0.0
0.1 18.49999999999772 0.0
0.1 18.59999999999787 0.0
0.1 18.69999999999802 0.0
0.1 18.79999999999818 0.0
0.1 18.89999999999833 0.0
0.1 18.99999999999848 0.0
0.1 19.09999999999863 0.0
0.1 19.19999999999878 0.0
0.1 19.29999999999894 0.0
0.1 19.39999999999909 0.0
0.1 19.49999999999924 0.0
0.1 19.59999999999939 0.0
0.1 19.69999999999955 0.0
0.1 19.7999999999997 0.0
0.1 19.89999999999985 0.0
0.0 19.9 0.0
0.0 19.8 0.0
0.0 19.7 0.0
0.0 19.6 0.0
0.0 19.5 0.0
0.0 19.4 0.0
0.0 19.3 0.0
0.0 19.2 0.0
0.0 19.1 0.0
0.0 19.0 0.0
0.0 18.9 0.0
0.0 18.8 0.0
0.0 18.7 0.0
0.0 18.6 0.0
0.0 18.5 0.0
0.0 18.4 0.0
0.0 18.3 0.0
0.0 18.2 0.0
0.0 18.1 0.0
0.0 18.0 0.0
0.0 17.9 0.0
0.0 17.8 0.0
0.0 17.7 0.0
0.0 17.6 0.0
0.0 17.5 0.0
0.0 17.4 0.0
0.0 17.3 0.0
0.0 17.2 0.0
0.0 17.09999999999999 0.0
0.0 17.0 0.0
0.0 16.9 0.0
0.0 16.8 0.0
0.0 16.7 0.0
0.0 16.59999999999999 0.0
0.0 16.49999999999999 0.0
0.0 16.4 0.0
0.0 16.29999999999999 0.0
0.0 16.2 0.0
0.0 16.09999999999999 0.0
0.0 15.99999999999999 0.0
0.0 15.89999999999999 0.0
0.0 15.79999999999999 0.0
0.0 15.69999999999999 0.0
0.0 15.59999999999999 0.0
0.0 15.49999999999999 0.0
0.0 15.39999999999999 0.0
0.0 15.29999999999999 0.0
0.0 15.19999999999999 0.0
0.0 15.09999999999999 0.0
0.0 14.99999999999999 0.0
0.0 14.89999999999999 0.0
0.0 14.79999999999999 0.0
0.0 14.69999999999999 0.0
0.0 14.59999999999999 0.0
0.0 14.49999999999999 0.0
0.0 14.39999999999999 0.0
0.0 14.29999999999999 0.0
0.0 14.19999999999999 0.0
0.0 14.09999999999999 0.0
0.0 13.99999999999999 0.0
0.0 13.89999999999999 0.0
0.0 13.79999999999999 0.0
0.0 13.69999999999999 0.0
0.0 13.59999999999999 0.0
0.0 13.49999999999999 0.0
0.0 13.39999999999999 0.0
0.0 13.29999999999999 0.0
0.0 13.19999999999999 0.0
0.0 13.09999999999999 0.0
0.0 12.99999999999999 0.0
0.0 12.89999999999999 0.0
0.0 12.79999999999999 0.0
0.0 12.69999999999999 0.0
0.0 12.59999999999999 0.0
0.0 12.49999999999999 0.0
0.0 12.39999999999999 0.0
0.0 12.29999999999999 0.0
0.0 12.19999999999999 0.0
0.0 12.09999999999999 0.0
0.0 11.99999999999999 0.0
0.0 11.89999999999999 0.0
0.0 11.79999999999999 0.0
0.0 11.69999999999999 0.0
0.0 11.59999999999999 0.0
0.0 11.49999999999999 0.0
0.0 11.39999999999999 0.0
0.0 11.29999999999999 0.0
0.0 11.19999999999999 0.0
0.0 11.09999999999999 0.0
0.0 10.99999999999999 0.0
0.0 10.89999999999999 0.0
0.0 10.79999999999999 0.0
0.0 10.69999999999999 0.0
0.0 10.59999999999999 0.0
0.0 10.49999999999999 0.0
0.0 10.39999999999999 0.0
0.0 10.29999999999999 0.0
0.0 10.19999999999999 0.0
0.0 10.09999999999999 0.0
0.0 9.999999999999993 0.0
0.0 9.899999999999993 0.0
0.0 9.799999999999994 0.0
0.0 9.699999999999992 0.0
0.0 9.599999999999993 0.0
0.0 9.499999999999993 0.0
0.0 9.399999999999993 0.0
0.0 9.299999999999995 0.0
0.0 9.199999999999996 0.0
0.0 9.099999999999994 0.0
0.0 8.999999999999995 0.0
0.0 8.899999999999995 0.0
0.0 8.799999999999994 0.0
0.0 8.699999999999994 0.0
0.0 8.599999999999994 0.0
0.0 8.499999999999995 0.0
0.0 8.399999999999995 0.0
0.0 8.299999999999994 0.0
0.0 8.199999999999994 0.0
0.0 8.099999999999994 0.0
0.0 7.999999999999993 0.0
0.0 7.899999999999995 0.0
0.0 7.799999999999995 0.0
0.0 7.699999999999996 0.0
0.0 7.599999999999996 0.0
0.0 7.499999999999996 0.0
0.0 7.399999999999995 0.0
0.0 7.299999999999995 0.0
0.0 7.199999999999996 0.0
0.0 7.099999999999994 0.0
0.0 6.999999999999995 0.0
0.0 6.899999999999995 0.0
0.0 6.799999999999995 0.0
0.0 6.699999999999996 0.0
0.0 6.599999999999994 0.0
0.0 6.499999999999995 0.0
0.0 6.399999999999997 0.0
0.0 6.299999999999997 0.0
0.0 6.199999999999996 0.0
0.0 6.099999999999996 0.0
0.0 5.999999999999996 0.0
0.0 5.899999999999997 0.0
0.0 5.799999999999997 0.0
0.0 5.699999999999996 0.0
0.0 5.599999999999996 0.0
0.0 5.499999999999996 0.0
0.0 5.399999999999995 0.0
0.0 5.299999999999995 0.0
0.0 5.199999999999996 0.0
0.0 5.099999999999996 0.0
0.0 4.999999999999998 0.0
0.0 4.899999999999999 0.0
0.0 4.799999999999997 0.0
0.0 4.699999999999998 0.0
0.0 4.599999999999998 0.0
0.0 4.499999999999996 0.0
0.0 4.399999999999997 0.0
0.0 4.299999999999997 0.0
0.0 4.199999999999998 0.0
0.0 4.099999999999998 0.0
0.0 3.999999999999996 0.0
0.0 3.899999999999999 0.0
0.0 3.799999999999997 0.0
0.0 3.699999999999996 0.0
0.0 3.599999999999998 0.0
0.0 3.5 0.0
0.0 3.399999999999999 0.0
0.0 3.299999999999997 0.0
0.0 3.199999999999999 0.0
0.0 3.099999999999998 0.0
0.0 3.0 0.0
0.0 2.899999999999999 0.0
0.0 2.799999999999997 0.0
0.0 2.699999999999999 0.0
0.0 2.599999999999998 0.0
0.0 2.499999999999996 0.0
0.0 2.399999999999999 0.0
0.0 2.299999999999997 0.0
0.0 2.199999999999999 0.0
0.0 2.100000000000001 0.0
0.0 2.0 0.0
0.0 1.899999999999999 0.0
0.0 1.800000000000001 0.0
0.0 1.699999999999999 0.0
0.0 1.599999999999998 0.0
0.0 1.5 0.0
0.0 1.399999999999999 0.0
0.0 1.299999999999997 0.0
0.0 1.199999999999999 0.0
0.0 1.099999999999998 0.0
0.0 1.0 0.0
0.0 0.8999999999999986 0.0
0.0 0.8000000000000007 0.0
0.0 0.6999999999999993 0.0
0.0 0.6000000000000014 0.0
0.0 0.5 0.0
0.0 0.3999999999999986 0.0
0.0 0.3000000000000007 0.0
0.0 0.1999999999999993 0.0
[...]
POINT_DATA 804
VECTORS displacement double
0.0 0.0 0.0
0.0 0.0 0.0
0.0 -0.0017876806810964653 0.0
0.0 -0.0017876806810964761 0.0
0.0 0.0 0.0
0.0 0.0 0.0
0.0 -0.00178768068109647 0.0
0.0 -0.0017876806810964705 0.0
0.0 1.34066660979509e-31 0.0
0.0 6.018320688885337e-31 0.0
0.0 -6.106388725624739e-30 0.0
0.0 -2.07751766711808e-29 0.0
0.0 2.605750510601604e-28 0.0
0.0 7.807620080122946e-28 0.0
0.0 -1.0417443250248078e-26 0.0
0.0 -3.329368342915967e-26 0.0
0.0 3.8880893750864444e-25 0.0
0.0 1.5575301760985122e-24 0.0
0.0 -1.3149028509814278e-23 0.0
0.0 -7.390632925435811e-23 0.0
0.0 3.7151765625381875e-22 0.0
0.0 3.2979448917905063e-21 0.0
0.0 -6.578796094938813e-21 0.0
0.0 -1.2922607277004183e-19 0.0
0.0 -9.966105369613888e-20 0.0
0.0 4.045288998952276e-18 0.0
0.0 1.5559076303688743e-17 0.0
0.0 -7.851765873061751e-17 0.0
0.0 -7.708022869149686e-16 0.0
0.0 -5.560284818205738e-16 0.0
0.0 2.089743213768996e-14 0.0
0.0 1.0866219899949964e-13 0.0
0.0 -8.827076806405389e-14 0.0
0.0 -3.477061432187698e-12 0.0
0.0 -1.5958896800365102e-11 0.0
0.0 2.9929686070318356e-12 0.0
0.0 4.2722899484353636e-10 0.0
0.0 2.56157518423849e-09 0.0
0.0 6.2964429954859145e-09 0.0
0.0 -1.6864742936235512e-08 0.0
0.0 -2.6057954448548467e-07 0.0
0.0 -1.5651178247559228e-06 0.0
0.0 -6.695435088615839e-06 0.0
0.0 -2.2902863099811543e-05 0.0
0.0 -6.54984921109678e-05 0.0
0.0 -0.00016001380212409216 0.0
0.0 -0.00033772506345685087 0.0
0.0 -0.0006194280061172845 0.0
0.0 -0.0009902382240312058 0.0
0.0 -0.0013830145425257772 0.0
0.0 -0.0016958155955630392 0.0
0.0 -0.0018496993300912647 0.0
0.0 -0.0018493053232258344 0.0
0.0 -0.0017840697859613595 0.0
0.0 -0.001752008786050742 0.0
0.0 -0.0017759241423553238 0.0
0.0 -0.0018054307606565896 0.0
0.0 -0.0017995613391331151 0.0
0.0 -0.001778368226706606 0.0
0.0 -0.0017785573428974522 0.0
0.0 -0.0017935298135336748 0.0
0.0 -0.0017941551464264799 0.0
0.0 -0.0017831529545180194 0.0
0.0 -0.0017834482341829248 0.0
0.0 -0.001791749258293826 0.0
0.0 -0.0017900313461791315 0.0
0.0 -0.001783975936739619 0.0
0.0 -0.0017870292570370341 0.0
0.0 -0.0017908320650468186 0.0
0.0 -0.00178695889909101 0.0
0.0 -0.0017855099255631249 0.0
0.0 -0.0017893346661625419 0.0
0.0 -0.0017885989749823834 0.0
0.0 -0.0017858380862230132 0.0
0.0 -0.0017880547656196797 0.0
0.0 -0.0017889939303360014 0.0
0.0 -0.0017865145851712466 0.0
0.0 -0.0017874279648000565 0.0
0.0 -0.0017888758506132048 0.0
0.0 -0.0017870028407738967 0.0
0.0 -0.0017872333659198784 0.0
0.0 -0.0017886588698362122 0.0
0.0 -0.0017872528654864935 0.0
0.0 -0.0017872454249311578 0.0
0.0 -0.001788477615577362 0.0
0.0 -0.0017873379783284204 0.0
0.0 -0.0017873467532760188 0.0
0.0 -0.0017883414125243948 0.0
0.0 -0.0017873320188382443 0.0
0.0 -0.0017874921029630373 0.0
0.0 -0.0017882196598172006 0.0
0.0 -0.0017872929535613193 0.0
0.0 -0.0017876629654755734 0.0
0.0 -0.0017880771957068259 0.0
0.0 -0.0017872717306357158 0.0
0.0 -0.0017878367424603529 0.0
0.0 -0.0017878935688280867 0.0
0.0 -0.0017873149454250817 0.0
0.0 -0.0017879711366117167 0.0
0.0 -0.001787681009701709 0.0
0.0 -0.001787450463420533 0.0
0.0 -0.0017880090918923417 0.0
0.0 -0.0017874957600326987 0.0
0.0 -0.0017876591747111612 0.0
0.0 -0.0017879116291116518 0.0
0.0 -0.0017874223374046226 0.0
0.0 -0.001787856542860576 0.0
0.0 -0.0017877086138067785 0.0
0.0 -0.0017875148043797636 0.0
0.0 -0.0017879237322950068 0.0
0.0 -0.001787521607489076 0.0
0.0 -0.0017877207001611981 0.0
0.0 -0.0017878044079364544 0.0
0.0 -0.0017874975112880734 0.0
0.0 -0.0017878727188974384 0.0
0.0 -0.0017875992682661488 0.0
0.0 -0.0017876608638519576 0.0
0.0 -0.001787822218584316 0.0
0.0 -0.0017875186211288542 0.0
0.0 -0.0017878349098685883 0.0
0.0 -0.0017876284477512303 0.0
0.0 -0.001787654964220685 0.0
0.0 -0.001787806503985274 0.0
0.0 -0.00178754183229105 0.0
0.0 -0.0017878214655798214 0.0
0.0 -0.0017876213779518726 0.0
0.0 -0.0017876816756824878 0.0
0.0 -0.0017877718487518581 0.0
0.0 -0.0017875678023288935 0.0
0.0 -0.0017878182198315168 0.0
0.0 -0.0017875966297857232 0.0
0.0 -0.001787728742935037 0.0
0.0 -0.0017877171216711474 0.0
0.0 -0.0017876118782088838 0.0
0.0 -0.0017878005443150758 0.0
0.0 -0.001787579968730155 0.0
0.0 -0.0017877775005781394 0.0
0.0 -0.0017876480013556803 0.0
0.0 -0.0017876836956004464 0.0
0.0 -0.0017877447727560544 0.0
0.0 -0.0017876048777250555 0.0
0.0 -0.0017877908203634348 0.0
0.0 -0.0017875981395177262 0.0
0.0 -0.0017877601624669843 0.0
0.0 -0.0017876574139025227 0.0
0.0 -0.0017876853306305089 0.0
0.0 -0.0017877334673169353 0.0
0.0 -0.0017876209955596002 0.0
0.0 -0.0017877765656668229 0.0
0.0 -0.0017876041830979445 0.0
0.0 -0.0017877666952893375 0.0
0.0 -0.0017876371200670966 0.0
0.0 -0.0017877172228361667 0.0
0.0 -0.0017876950715638212 0.0
0.0 -0.0017876590554876978 0.0
0.0 -0.0017877461451306156 0.0
0.0 -0.0017876206529189099 0.0
0.0 -0.0017877684884825724 0.0
0.0 -0.0017876155154854297 0.0
0.0 -0.0017877573256279268 0.0
0.0 -0.0017876404610690688 0.0
0.0 -0.0017877222239685597 0.0
0.0 -0.0017876815560170388 0.0
0.0 -0.0017876793513586361 0.0
0.0 -0.0017877223739618483 0.0
0.0 -0.0017876437608735434 0.0
0.0 -0.0017877504197109132 0.0
0.0 -0.0017876246807192288 0.0
0.0 -0.0017877599964175477 0.0
0.0 -0.0017876243857840026 0.0
0.0 -0.0017877518607327162 0.0
0.0 -0.0017876396605821562 0.0
0.0 -0.0017877310246213122 0.0
0.0 -0.0017876643701436779 0.0
0.0 -0.0017877041216825332 0.0
0.0 -0.0017876919166925648 0.0
0.0 -0.001787677292021664 0.0
0.0 -0.0017877169197665843 0.0
0.0 -0.0017876549697024894 0.0
0.0 -0.0017877359761826852 0.0
0.0 -0.0017876395269700782 0.0
0.0 -0.0017877476801562286 0.0
0.0 -0.001787631512447989 0.0
0.0 -0.0017877522040797274 0.0
0.0 -0.0017876301804345825 0.0
0.0 -0.0017877507198379298 0.0
0.0 -0.0017876340704593278 0.0
0.0 -0.0017877448543917773 0.0
0.0 -0.0017876414922726983 0.0
0.0 -0.0017877362782618073 0.0
0.0 -0.0017876508582293754 0.0
0.0 -0.001787726451498718 0.0
0.0 -0.0017876608643271651 0.0
0.0 -0.0017877165073321587 0.0
0.0 -0.001787670551744926 0.0
0.0 -0.0017877072350731338 0.0
0.0 -0.0017876792895832826 0.0
0.0 -0.0017876991224693864 0.0
0.0 -0.0017876867155337635 0.0
0.0 -0.0017876924251789808 0.0
0.0 -0.0017876926617872162 0.0
0.0 -0.0017876872411916732 0.0
0.0 -0.001787697083462281 0.0
0.0 -0.001787683577319874 0.0
0.0 -0.0017876999986490612 0.0
0.0 -0.0017876814017739446 0.0
0.0 -0.0017877014436112355 0.0
0.0 -0.0017877014436112326 0.0
0.0 -0.0017876814017739535 0.0
0.0 -0.0017876999986490773 0.0
0.0 -0.0017876835773198863 0.0
0.0 -0.0017876970834622764 0.0
0.0 -0.001787687241191679 0.0
0.0 -0.0017876926617872097 0.0
0.0 -0.0017876924251789778 0.0
0.0 -0.0017876867155337543 0.0
0.0 -0.0017876991224693936 0.0
0.0 -0.0017876792895832852 0.0
0.0 -0.0017877072350731358 0.0
0.0 -0.001787670551744923 0.0
0.0 -0.0017877165073321515 0.0
0.0 -0.0017876608643271495 0.0
0.0 -0.0017877264514987046 0.0
0.0 -0.0017876508582293903 0.0
0.0 -0.0017877362782617824 0.0
0.0 -0.0017876414922727158 0.0
0.0 -0.001787744854391783 0.0
0.0 -0.0017876340704593464 0.0
0.0 -0.0017877507198379439 0.0
0.0 -0.0017876301804345713 0.0
0.0 -0.001787752204079734 0.0
0.0 -0.0017876315124479606 0.0
0.0 -0.0017877476801562214 0.0
0.0 -0.0017876395269700697 0.0
0.0 -0.0017877359761826778 0.0
0.0 -0.0017876549697025102 0.0
0.0 -0.0017877169197665812 0.0
0.0 -0.0017876772920216676 0.0
0.0 -0.0017876919166925633 0.0
0.0 -0.001787704121682551 0.0
0.0 -0.0017876643701436794 0.0
0.0 -0.001787731024621333 0.0
0.0 -0.0017876396605821703 0.0
0.0 -0.0017877518607327073 0.0
0.0 -0.0017876243857839922 0.0
0.0 -0.0017877599964175404 0.0
0.0 -0.0017876246807192295 0.0
0.0 -0.0017877504197109124 0.0
0.0 -0.001787643760873561 0.0
0.0 -0.0017877223739618297 0.0
0.0 -0.0017876793513586107 0.0
0.0 -0.0017876815560170444 0.0
0.0 -0.0017877222239685662 0.0
0.0 -0.0017876404610690797 0.0
0.0 -0.001787757325627944 0.0
0.0 -0.0017876155154854358 0.0
0.0 -0.0017877684884825729 0.0
0.0 -0.0017876206529189149 0.0
0.0 -0.0017877461451306022 0.0
0.0 -0.0017876590554877152 0.0
0.0 -0.0017876950715638288 0.0
0.0 -0.001787717222836173 0.0
0.0 -0.001787637120067096 0.0
0.0 -0.001787766695289353 0.0
0.0 -0.0017876041830979456 0.0
0.0 -0.0017877765656668116 0.0
0.0 -0.001787620995559609 0.0
0.0 -0.0017877334673169288 0.0
0.0 -0.0017876853306305056 0.0
0.0 -0.0017876574139025177 0.0
0.0 -0.0017877601624669817 0.0
0.0 -0.0017875981395177325 0.0
0.0 -0.0017877908203634333 0.0
0.0 -0.0017876048777250512 0.0
0.0 -0.0017877447727560637 0.0
0.0 -0.0017876836956004607 0.0
0.0 -0.0017876480013556625 0.0
0.0 -0.0017877775005781522 0.0
0.0 -0.0017875799687301424 0.0
0.0 -0.0017878005443150793 0.0
0.0 -0.0017876118782088996 0.0
0.0 -0.0017877171216711268 0.0
0.0 -0.0017877287429350626 0.0
0.0 -0.0017875966297857073 0.0
0.0 -0.0017878182198315256 0.0
0.0 -0.0017875678023288994 0.0
0.0 -0.0017877718487518352 0.0
0.0 -0.0017876816756825188 0.0
0.0 -0.0017876213779518528 0.0
0.0 -0.0017878214655798368 0.0
0.0 -0.0017875418322910552 0.0
0.0 -0.0017878065039852477 0.0
0.0 -0.0017876549642207155 0.0
0.0 -0.0017876284477511886 0.0
0.0 -0.0017878349098686289 0.0
0.0 -0.0017875186211288774 0.0
0.0 -0.0017878222185842823 0.0
0.0 -0.0017876608638520053 0.0
0.0 -0.001787599268266111 0.0
0.0 -0.0017878727188974498 0.0
0.0 -0.0017874975112881066 0.0
0.0 -0.0017878044079364093 0.0
0.0 -0.0017877207001612571 0.0
0.0 -0.0017875216074890443 0.0
0.0 -0.0017879237322950088 0.0
0.0 -0.001787514804379794 0.0
0.0 -0.0017877086138067143 0.0
0.0 -0.0017878565428606258 0.0
0.0 -0.0017874223374046226 0.0
0.0 -0.0017879116291115995 0.0
0.0 -0.0017876591747112394 0.0
0.0 -0.0017874957600326339 0.0
0.0 -0.0017880090918923433 0.0
0.0 -0.0017874504634205883 0.0
0.0 -0.0017876810097016173 0.0
0.0 -0.001787971136611806 0.0
0.0 -0.001787314945425101 0.0
0.0 -0.0017878935688279975 0.0
0.0 -0.001787836742460463 0.0
0.0 -0.001787271730635681 0.0
0.0 -0.0017880771957067417 0.0
0.0 -0.001787662965475726 0.0
0.0 -0.0017872929535612159 0.0
0.0 -0.0017882196598171646 0.0
0.0 -0.0017874921029632086 0.0
0.0 -0.0017873320188380917 0.0
0.0 -0.0017883414125243672 0.0
0.0 -0.001787346753276204 0.0
0.0 -0.0017873379783282166 0.0
0.0 -0.0017884776155773655 0.0
0.0 -0.0017872454249313675 0.0
0.0 -0.0017872528654862719 0.0
0.0 -0.0017886588698362133 0.0
0.0 -0.001787233365920125 0.0
0.0 -0.001787002840773657 0.0
0.0 -0.001788875850613138 0.0
0.0 -0.0017874279648004009 0.0
0.0 -0.0017865145851710554 0.0
0.0 -0.001788993930335778 0.0
0.0 -0.001788054765620089 0.0
0.0 -0.0017858380862229477 0.0
0.0 -0.001788598974981936 0.0
0.0 -0.0017893346661628736 0.0
0.0 -0.001785509925563414 0.0
0.0 -0.001786958899090433 0.0
0.0 -0.0017908320650467757 0.0
0.0 -0.0017870292570377453 0.0
0.0 -0.0017839759367393841 0.0
0.0 -0.0017900313461783881 0.0
0.0 -0.0017917492582943623 0.0
0.0 -0.0017834482341837102 0.0
0.0 -0.0017831529545171989 0.0
0.0 -0.0017941551464256016 0.0
0.0 -0.0017935298135347874 0.0
0.0 -0.0017785573428986325 0.0
0.0 -0.0017783682267052943 0.0
0.0 -0.0017995613391312416 0.0
0.0 -0.0018054307606578165 0.0
0.0 -0.0017759241423585107 0.0
0.0 -0.0017520087860507085 0.0
0.0 -0.0017840697859564957 0.0
0.0 -0.0018493053232218728 0.0
0.0 -0.0018496993300964237 0.0
0.0 -0.0016958155955804925 0.0
0.0 -0.001383014542551459 0.0
0.0 -0.0009902382240575668 0.0
0.0 -0.0006194280061383866 0.0
0.0 -0.00033772506347065054 0.0
0.0 -0.00016001380213161422 0.0
0.0 -6.549849211441819e-05 0.0
0.0 -2.290286310114463e-05 0.0
0.0 -6.695435089044224e-06 0.0
0.0 -1.565117824867314e-06 0.0
0.0 -2.6057954450742473e-07 0.0
0.0 -1.6864742938862902e-08 0.0
0.0 6.296442995574385e-09 0.0
0.0 2.5615751843652577e-09 0.0
0.0 4.272289948727435e-10 0.0
0.0 2.9929686094060653e-12 0.0
0.0 -1.5958896800827945e-11 0.0
0.0 -3.4770614323528046e-12 0.0
0.0 -8.827076807950312e-14 0.0
0.0 1.0866219900189486e-13 0.0
0.0 2.0897432138604552e-14 0.0
0.0 -5.560284817590283e-16 0.0
0.0 -7.708022869359241e-16 0.0
0.0 -7.851765873511307e-17 0.0
0.0 1.555907630382016e-17 0.0
0.0 4.0452889990971405e-18 0.0
0.0 -9.96610536869067e-20 0.0
0.0 -1.2922607277332673e-19 0.0
0.0 -6.5787960954215176e-21 0.0
0.0 3.297944891847787e-21 0.0
0.0 3.7151765626925943e-22 0.0
0.0 -7.39063292551021e-23 0.0
0.0 -1.3149028510220673e-23 0.0
0.0 1.557530176105562e-24 0.0
0.0 3.8880893751751254e-25 0.0
0.0 -3.329368342927052e-26 0.0
0.0 -1.0417443250406773e-26 0.0
0.0 7.807620080151273e-28 0.0
0.0 2.6057505106267435e-28 0.0
0.0 -2.077517667125077e-29 0.0
0.0 -6.10638872566016e-30 0.0
0.0 6.018320688907306e-31 0.0
0.0 1.3406666097970484e-31 0.0
0.0 1.340666609795118e-31 0.0
0.0 6.018320688885171e-31 0.0
0.0 -6.1063887256246434e-30 0.0
0.0 -2.077517667118123e-29 0.0
0.0 2.6057505106016255e-28 0.0
0.0 7.807620080122786e-28 0.0
0.0 -1.0417443250247977e-26 0.0
0.0 -3.329368342916025e-26 0.0
0.0 3.8880893750864563e-25 0.0
0.0 1.5575301760985019e-24 0.0
0.0 -1.3149028509814284e-23 0.0
0.0 -7.390632925435753e-23 0.0
0.0 3.715176562538159e-22 0.0
0.0 3.2979448917905188e-21 0.0
0.0 -6.578796094938771e-21 0.0
0.0 -1.2922607277004179e-19 0.0
0.0 -9.966105369614054e-20 0.0
0.0 4.0452889989522844e-18 0.0
0.0 1.5559076303688918e-17 0.0
0.0 -7.851765873061814e-17 0.0
0.0 -7.708022869149674e-16 0.0
0.0 -5.560284818205886e-16 0.0
0.0 2.0897432137689884e-14 0.0
0.0 1.0866219899950043e-13 0.0
0.0 -8.82707680640581e-14 0.0
0.0 -3.4770614321877105e-12 0.0
0.0 -1.5958896800365128e-11 0.0
0.0 2.9929686070319273e-12 0.0
0.0 4.272289948435372e-10 0.0
0.0 2.561575184238483e-09 0.0
0.0 6.296442995485931e-09 0.0
0.0 -1.6864742936235605e-08 0.0
0.0 -2.605795444854844e-07 0.0
0.0 -1.5651178247558995e-06 0.0
0.0 -6.6954350886157715e-06 0.0
0.0 -2.2902863099811516e-05 0.0
0.0 -6.54984921109678e-05 0.0
0.0 -0.00016001380212409292 0.0
0.0 -0.00033772506345685054 0.0
0.0 -0.0006194280061172862 0.0
0.0 -0.0009902382240312058 0.0
0.0 -0.001383014542525781 0.0
0.0 -0.0016958155955630386 0.0
0.0 -0.001849699330091271 0.0
0.0 -0.001849305323225834 0.0
0.0 -0.0017840697859613627 0.0
0.0 -0.0017520087860507453 0.0
0.0 -0.0017759241423553204 0.0
0.0 -0.0018054307606565837 0.0
0.0 -0.0017995613391331088 0.0
0.0 -0.0017783682267066094 0.0
0.0 -0.0017785573428974527 0.0
0.0 -0.001793529813533685 0.0
0.0 -0.0017941551464264757 0.0
0.0 -0.0017831529545180253 0.0
0.0 -0.0017834482341829135 0.0
0.0 -0.0017917492582938258 0.0
0.0 -0.0017900313461791382 0.0
0.0 -0.0017839759367396237 0.0
0.0 -0.0017870292570370389 0.0
0.0 -0.0017908320650468126 0.0
0.0 -0.0017869588990909971 0.0
0.0 -0.0017855099255631162 0.0
0.0 -0.0017893346661625395 0.0
0.0 -0.0017885989749823734 0.0
0.0 -0.0017858380862229959 0.0
0.0 -0.0017880547656196873 0.0
0.0 -0.0017889939303359966 0.0
0.0 -0.0017865145851712577 0.0
0.0 -0.001787427964800056 0.0
0.0 -0.0017888758506132074 0.0
0.0 -0.001787002840773899 0.0
0.0 -0.0017872333659198867 0.0
0.0 -0.0017886588698362228 0.0
0.0 -0.0017872528654865054 0.0
0.0 -0.0017872454249311493 0.0
0.0 -0.0017884776155773605 0.0
0.0 -0.001787337978328413 0.0
0.0 -0.0017873467532760184 0.0
0.0 -0.001788341412524388 0.0
0.0 -0.0017873320188382515 0.0
0.0 -0.001787492102963032 0.0
0.0 -0.0017882196598172047 0.0
0.0 -0.0017872929535613154 0.0
0.0 -0.0017876629654755781 0.0
0.0 -0.0017880771957068209 0.0
0.0 -0.0017872717306357257 0.0
0.0 -0.001787836742460364 0.0
0.0 -0.001787893568828089 0.0
0.0 -0.0017873149454250817 0.0
0.0 -0.0017879711366117401 0.0
0.0 -0.0017876810097017172 0.0
0.0 -0.0017874504634205252 0.0
0.0 -0.0017880090918923508 0.0
0.0 -0.0017874957600327033 0.0
0.0 -0.0017876591747111557 0.0
0.0 -0.0017879116291116442 0.0
0.0 -0.001787422337404633 0.0
0.0 -0.001787856542860588 0.0
0.0 -0.0017877086138067889 0.0
0.0 -0.0017875148043797597 0.0
0.0 -0.001787923732294999 0.0
0.0 -0.0017875216074890916 0.0
0.0 -0.0017877207001612116 0.0
0.0 -0.0017878044079364412 0.0
0.0 -0.0017874975112880853 0.0
0.0 -0.0017878727188974418 0.0
0.0 -0.0017875992682661373 0.0
0.0 -0.0017876608638519645 0.0
0.0 -0.0017878222185843068 0.0
0.0 -0.0017875186211288687 0.0
0.0 -0.0017878349098686057 0.0
0.0 -0.0017876284477512268 0.0
0.0 -0.001787654964220698 0.0
0.0 -0.0017878065039852787 0.0
0.0 -0.0017875418322910591 0.0
0.0 -0.0017878214655798234 0.0
0.0 -0.0017876213779518756 0.0
0.0 -0.0017876816756824912 0.0
0.0 -0.0017877718487518542 0.0
0.0 -0.0017875678023288905 0.0
0.0 -0.001787818219831509 0.0
0.0 -0.0017875966297857182 0.0
0.0 -0.0017877287429350509 0.0
0.0 -0.0017877171216711515 0.0
0.0 -0.001787611878208888 0.0
0.0 -0.001787800544315081 0.0
0.0 -0.0017875799687301558 0.0
0.0 -0.0017877775005781394 0.0
0.0 -0.001787648001355676 0.0
0.0 -0.0017876836956004466 0.0
0.0 -0.0017877447727560707 0.0
0.0 -0.0017876048777250516 0.0
0.0 -0.0017877908203634356 0.0
0.0 -0.0017875981395177336 0.0
0.0 -0.0017877601624669917 0.0
0.0 -0.0017876574139025281 0.0
0.0 -0.0017876853306305035 0.0
0.0 -0.0017877334673169392 0.0
0.0 -0.0017876209955596028 0.0
0.0 -0.0017877765656668207 0.0
0.0 -0.0017876041830979497 0.0
0.0 -0.0017877666952893522 0.0
0.0 -0.0017876371200671011 0.0
0.0 -0.001787717222836164 0.0
0.0 -0.0017876950715638338 0.0
0.0 -0.0017876590554877052 0.0
0.0 -0.0017877461451306163 0.0
0.0 -0.0017876206529189047 0.0
0.0 -0.0017877684884825802 0.0
0.0 -0.0017876155154854258 0.0
0.0 -0.0017877573256279335 0.0
0.0 -0.001787640461069075 0.0
0.0 -0.001787722223968568 0.0
0.0 -0.0017876815560170587 0.0
0.0 -0.0017876793513586199 0.0
0.0 -0.0017877223739618507 0.0
0.0 -0.001787643760873554 0.0
0.0 -0.0017877504197109028 0.0
0.0 -0.0017876246807192228 0.0
0.0 -0.001787759996417531 0.0
0.0 -0.0017876243857839857 0.0
0.0 -0.0017877518607327062 0.0
0.0 -0.0017876396605821837 0.0
0.0 -0.0017877310246213376 0.0
0.0 -0.0017876643701436729 0.0
0.0 -0.001787704121682553 0.0
0.0 -0.0017876919166925711 0.0
0.0 -0.0017876772920216676 0.0
0.0 -0.0017877169197665942 0.0
0.0 -0.0017876549697024996 0.0
0.0 -0.001787735976182676 0.0
0.0 -0.0017876395269700708 0.0
0.0 -0.0017877476801562355 0.0
0.0 -0.001787631512447957 0.0
0.0 -0.001787752204079742 0.0
0.0 -0.0017876301804345767 0.0
0.0 -0.0017877507198379376 0.0
0.0 -0.0017876340704593336 0.0
0.0 -0.0017877448543917713 0.0
0.0 -0.0017876414922727143 0.0
0.0 -0.0017877362782617932 0.0
0.0 -0.0017876508582293942 0.0
0.0 -0.0017877264514987166 0.0
0.0 -0.0017876608643271588 0.0
0.0 -0.0017877165073321608 0.0
0.0 -0.001787670551744925 0.0
0.0 -0.0017877072350731436 0.0
0.0 -0.0017876792895832904 0.0
0.0 -0.001787699122469387 0.0
0.0 -0.0017876867155337543 0.0
0.0 -0.0017876924251789801 0.0
0.0 -0.001787692661787208 0.0
0.0 -0.0017876872411916715 0.0
0.0 -0.0017876970834622796 0.0
0.0 -0.0017876835773198826 0.0
0.0 -0.0017876999986490784 0.0
0.0 -0.001787681401773945 0.0
0.0 -0.001787701443611232 0.0
0.0 -0.0017877014436112266 0.0
0.0 -0.0017876814017739556 0.0
0.0 -0.001787699998649071 0.0
0.0 -0.0017876835773198735 0.0
0.0 -0.0017876970834622872 0.0
0.0 -0.0017876872411916784 0.0
0.0 -0.001787692661787221 0.0
0.0 -0.0017876924251789864 0.0
0.0 -0.0017876867155337667 0.0
0.0 -0.001787699122469391 0.0
0.0 -0.0017876792895833006 0.0
0.0 -0.0017877072350731351 0.0
0.0 -0.0017876705517449218 0.0
0.0 -0.0017877165073321582 0.0
0.0 -0.0017876608643271523 0.0
0.0 -0.0017877264514987096 0.0
0.0 -0.0017876508582293847 0.0
0.0 -0.0017877362782618034 0.0
0.0 -0.0017876414922727022 0.0
0.0 -0.0017877448543917823 0.0
0.0 -0.0017876340704593384 0.0
0.0 -0.001787750719837935 0.0
0.0 -0.0017876301804345845 0.0
0.0 -0.0017877522040797209 0.0
0.0 -0.0017876315124479756 0.0
0.0 -0.0017877476801562184 0.0
0.0 -0.001787639526970081 0.0
0.0 -0.0017877359761826828 0.0
0.0 -0.001787654969702494 0.0
0.0 -0.0017877169197665786 0.0
0.0 -0.001787677292021677 0.0
0.0 -0.0017876919166925761 0.0
0.0 -0.0017877041216825356 0.0
0.0 -0.001787664370143668 0.0
0.0 -0.001787731024621332 0.0
0.0 -0.0017876396605821688 0.0
0.0 -0.001787751860732714 0.0
0.0 -0.0017876243857839896 0.0
0.0 -0.0017877599964175382 0.0
0.0 -0.00178762468071924 0.0
0.0 -0.0017877504197109167 0.0
0.0 -0.0017876437608735597 0.0
0.0 -0.001787722373961852 0.0
0.0 -0.0017876793513586409 0.0