# vtk DataFile Version 2.0
data_105
ASCII
DATASET UNSTRUCTURED_GRID
POINTS 804 float
0.0 0.0 0.0
0.1 0.0 0.0
0.1 20.0 0.0
0.0 20.0 0.0
0.0 0.0 -0.1
0.1 0.0 -0.1
0.1 20.0 -0.1
0.0 20.0 -0.1
0.1 0.09999999999992462 0.0
0.1 0.1999999999998517 0.0
0.1 0.2999999999997818 0.0
0.1 0.399999999999712 0.0
0.1 0.4999999999996377 0.0
0.1 0.5999999999995541 0.0
0.1 0.6999999999994495 0.0
0.1 0.7999999999993355 0.0
0.1 0.8999999999992101 0.0
0.1 0.999999999999102 0.0
0.1 1.099999999999006 0.0
0.1 1.199999999998936 0.0
0.1 1.299999999998867 0.0
0.1 1.399999999998797 0.0
0.1 1.499999999998727 0.0
0.1 1.599999999998657 0.0
0.1 1.699999999998587 0.0
0.1 1.799999999998517 0.0
0.1 1.899999999998447 0.0
0.1 1.999999999998378 0.0
0.1 2.099999999998308 0.0
0.1 2.199999999998238 0.0
0.1 2.299999999998168 0.0
0.1 2.399999999998067 0.0
0.1 2.499999999997942 0.0
0.1 2.599999999997706 0.0
0.1 2.699999999997444 0.0
0.1 2.799999999997153 0.0
0.1 2.899999999996861 0.0
0.1 2.999999999996569 0.0
0.1 3.099999999996277 0.0
0.1 3.199999999995984 0.0
0.1 3.299999999995693 0.0
0.1 3.399999999995401 0.0
0.1 3.499999999995108 0.0
0.1 3.599999999994816 0.0
0.1 3.699999999994525 0.0
0.1 3.799999999994232 0.0
0.1 3.89999999999394 0.0
0.1 3.999999999993648 0.0
0.1 4.099999999993356 0.0
0.1 4.199999999993064 0.0
0.1 4.299999999992772 0.0
0.1 4.399999999992479 0.0
0.1 4.499999999992188 0.0
0.1 4.599999999991895 0.0
0.1 4.699999999991603 0.0
0.1 4.799999999991311 0.0
0.1 4.899999999991019 0.0
0.1 4.999999999990727 0.0
0.1 5.099999999990436 0.0
0.1 5.199999999990144 0.0
0.1 5.299999999989851 0.0
0.1 5.399999999989559 0.0
0.1 5.499999999989267 0.0
0.1 5.599999999988975 0.0
0.1 5.699999999988683 0.0
0.1 5.799999999988391 0.0
0.1 5.899999999988099 0.0
0.1 5.999999999987806 0.0
0.1 6.099999999987515 0.0
0.1 6.199999999987222 0.0
0.1 6.299999999986929 0.0
0.1 6.399999999986638 0.0
0.1 6.499999999986345 0.0
0.1 6.599999999986054 0.0
0.1 6.699999999985762 0.0
0.1 6.79999999998547 0.0
0.1 6.899999999985177 0.0
0.1 6.999999999984885 0.0
0.1 7.099999999984593 0.0
0.1 7.199999999984302 0.0
0.1 7.299999999984009 0.0
0.1 7.399999999983717 0.0
0.1 7.499999999983426 0.0
0.1 7.599999999983132 0.0
0.1 7.699999999982841 0.0
0.1 7.799999999982549 0.0
0.1 7.899999999982256 0.0
0.1 7.999999999982034 0.0
0.1 8.099999999981964 0.0
0.1 8.199999999982062 0.0
0.1 8.299999999982214 0.0
0.1 8.399999999982366 0.0
0.1 8.499999999982517 0.0
0.1 8.59999999998267 0.0
0.1 8.699999999982822 0.0
0.1 8.799999999982973 0.0
0.1 8.899999999983125 0.0
0.1 8.999999999983277 0.0
0.1 9.09999999998343 0.0
0.1 9.19999999998358 0.0
0.1 9.299999999983733 0.0
0.1 9.399999999983885 0.0
0.1 9.499999999984038 0.0
0.1 9.599999999984188 0.0
0.1 9.69999999998434 0.0
0.1 9.799999999984493 0.0
0.1 9.899999999984646 0.0
0.1 9.999999999984798 0.0
0.1 10.09999999998495 0.0
0.1 10.1999999999851 0.0
0.1 10.29999999998525 0.0
0.1 10.39999999998541 0.0
0.1 10.49999999998556 0.0
0.1 10.59999999998571 0.0
0.1 10.69999999998586 0.0
0.1 10.79999999998601 0.0
0.1 10.89999999998616 0.0
0.1 10.99999999998632 0.0
0.1 11.09999999998647 0.0
0.1 11.19999999998662 0.0
0.1 11.29999999998677 0.0
0.1 11.39999999998693 0.0
0.1 11.49999999998708 0.0
0.1 11.59999999998723 0.0
0.1 11.69999999998738 0.0
0.1 11.79999999998754 0.0
0.1 11.89999999998769 0.0
0.1 11.99999999998784 0.0
0.1 12.09999999998799 0.0
0.1 12.19999999998814 0.0
0.1 12.2999999999883 0.0
0.1 12.39999999998845 0.0
0.1 12.4999999999886 0.0
0.1 12.59999999998875 0.0
0.1 12.6999999999889 0.0
0.1 12.79999999998905 0.0
0.1 12.89999999998921 0.0
0.1 12.99999999998936 0.0
0.1 13.09999999998951 0.0
0.1 13.19999999998966 0.0
0.1 13.29999999998982 0.0
0.1 13.39999999998997 0.0
0.1 13.49999999999012 0.0
0.1 13.59999999999027 0.0
0.1 13.69999999999042 0.0
0.1 13.79999999999057 0.0
0.1 13.89999999999073 0.0
0.1 13.99999999999088 0.0
0.1 14.09999999999103 0.0
0.1 14.19999999999118 0.0
0.1 14.29999999999134 0.0
0.1 14.39999999999149 0.0
0.1 14.49999999999164 0.0
0.1 14.59999999999179 0.0
0.1 14.69999999999194 0.0
0.1 14.7999999999921 0.0
0.1 14.89999999999225 0.0
0.1 14.9999999999924 0.0
0.1 15.09999999999255 0.0
0.1 15.1999999999927 0.0
0.1 15.29999999999285 0.0
0.1 15.39999999999301 0.0
0.1 15.49999999999316 0.0
0.1 15.59999999999331 0.0
0.1 15.69999999999346 0.0
0.1 15.79999999999362 0.0
0.1 15.89999999999377 0.0
0.1 15.99999999999392 0.0
0.1 16.09999999999407 0.0
0.1 16.19999999999422 0.0
0.1 16.29999999999437 0.0
0.1 16.39999999999453 0.0
0.1 16.49999999999468 0.0
0.1 16.59999999999483 0.0
0.1 16.69999999999498 0.0
0.1 16.79999999999514 0.0
0.1 16.89999999999528 0.0
0.1 16.99999999999544 0.0
0.1 17.09999999999559 0.0
0.1 17.19999999999574 0.0
0.1 17.29999999999589 0.0
0.1 17.39999999999605 0.0
0.1 17.4999999999962 0.0
0.1 17.59999999999635 0.0
0.1 17.6999999999965 0.0
0.1 17.79999999999665 0.0
0.1 17.89999999999681 0.0
0.1 17.99999999999696 0.0
0.1 18.09999999999711 0.0
0.1 18.19999999999726 0.0
0.1 18.29999999999742 0.0
0.1 18.39999999999757 0.0
0.1 18.49999999999772 0.0
0.1 18.59999999999787 0.0
0.1 18.69999999999802 0.0
0.1 18.79999999999818 0.0
0.1 18.89999999999833 0.0
0.1 18.99999999999848 0.0
0.1 19.09999999999863 0.0
0.1 19.19999999999878 0.0
0.1 19.29999999999894 0.0
0.1 19.39999999999909 0.0
0.1 19.49999999999924 0.0
0.1 19.59999999999939 0.0
0.1 19.69999999999955 0.0
0.1 19.7999999999997 0.0
0.1 19.89999999999985 0.0
0.0 19.9 0.0
0.0 19.8 0.0
0.0 19.7 0.0
0.0 19.6 0.0
0.0 19.5 0.0
0.0 19.4 0.0
0.0 19.3 0.0
0.0 19.2 0.0
0.0 19.1 0.0
0.0 19.0 0.0
0.0 18.9 0.0
0.0 18.8 0.0
0.0 18.7 0.0
0.0 18.6 0.0
0.0 18.5 0.0
0.0 18.4 0.0
0.0 18.3 0.0
0.0 18.2 0.0
0.0 18.1 0.0
0.0 18.0 0.0
0.0 17.9 0.0
0.0 17.8 0.0
0.0 17.7 0.0
0.0 17.6 0.0
0.0 17.5 0.0
0.0 17.4 0.0
0.0 17.3 0.0
0.0 17.2 0.0
0.0 17.09999999999999 0.0
0.0 17.0 0.0
0.0 16.9 0.0
0.0 16.8 0.0
0.0 16.7 0.0
0.0 16.59999999999999 0.0
0.0 16.49999999999999 0.0
0.0 16.4 0.0
0.0 16.29999999999999 0.0
0.0 16.2 0.0
0.0 16.09999999999999 0.0
0.0 15.99999999999999 0.0
0.0 15.89999999999999 0.0
0.0 15.79999999999999 0.0
0.0 15.69999999999999 0.0
0.0 15.59999999999999 0.0
0.0 15.49999999999999 0.0
0.0 15.39999999999999 0.0
0.0 15.29999999999999 0.0
0.0 15.19999999999999 0.0
0.0 15.09999999999999 0.0
0.0 14.99999999999999 0.0
0.0 14.89999999999999 0.0
0.0 14.79999999999999 0.0
0.0 14.69999999999999 0.0
0.0 14.59999999999999 0.0
0.0 14.49999999999999 0.0
0.0 14.39999999999999 0.0
0.0 14.29999999999999 0.0
0.0 14.19999999999999 0.0
0.0 14.09999999999999 0.0
0.0 13.99999999999999 0.0
0.0 13.89999999999999 0.0
0.0 13.79999999999999 0.0
0.0 13.69999999999999 0.0
0.0 13.59999999999999 0.0
0.0 13.49999999999999 0.0
0.0 13.39999999999999 0.0
0.0 13.29999999999999 0.0
0.0 13.19999999999999 0.0
0.0 13.09999999999999 0.0
0.0 12.99999999999999 0.0
0.0 12.89999999999999 0.0
0.0 12.79999999999999 0.0
0.0 12.69999999999999 0.0
0.0 12.59999999999999 0.0
0.0 12.49999999999999 0.0
0.0 12.39999999999999 0.0
0.0 12.29999999999999 0.0
0.0 12.19999999999999 0.0
0.0 12.09999999999999 0.0
0.0 11.99999999999999 0.0
0.0 11.89999999999999 0.0
0.0 11.79999999999999 0.0
0.0 11.69999999999999 0.0
0.0 11.59999999999999 0.0
0.0 11.49999999999999 0.0
0.0 11.39999999999999 0.0
0.0 11.29999999999999 0.0
0.0 11.19999999999999 0.0
0.0 11.09999999999999 0.0
0.0 10.99999999999999 0.0
0.0 10.89999999999999 0.0
0.0 10.79999999999999 0.0
0.0 10.69999999999999 0.0
0.0 10.59999999999999 0.0
0.0 10.49999999999999 0.0
0.0 10.39999999999999 0.0
0.0 10.29999999999999 0.0
0.0 10.19999999999999 0.0
0.0 10.09999999999999 0.0
0.0 9.999999999999993 0.0
0.0 9.899999999999993 0.0
0.0 9.799999999999994 0.0
0.0 9.699999999999992 0.0
0.0 9.599999999999993 0.0
0.0 9.499999999999993 0.0
0.0 9.399999999999993 0.0
0.0 9.299999999999995 0.0
0.0 9.199999999999996 0.0
0.0 9.099999999999994 0.0
0.0 8.999999999999995 0.0
0.0 8.899999999999995 0.0
0.0 8.799999999999994 0.0
0.0 8.699999999999994 0.0
0.0 8.599999999999994 0.0
0.0 8.499999999999995 0.0
0.0 8.399999999999995 0.0
0.0 8.299999999999994 0.0
0.0 8.199999999999994 0.0
0.0 8.099999999999994 0.0
0.0 7.999999999999993 0.0
0.0 7.899999999999995 0.0
0.0 7.799999999999995 0.0
0.0 7.699999999999996 0.0
0.0 7.599999999999996 0.0
0.0 7.499999999999996 0.0
0.0 7.399999999999995 0.0
0.0 7.299999999999995 0.0
0.0 7.199999999999996 0.0
0.0 7.099999999999994 0.0
0.0 6.999999999999995 0.0
0.0 6.899999999999995 0.0
0.0 6.799999999999995 0.0
0.0 6.699999999999996 0.0
0.0 6.599999999999994 0.0
0.0 6.499999999999995 0.0
0.0 6.399999999999997 0.0
0.0 6.299999999999997 0.0
0.0 6.199999999999996 0.0
0.0 6.099999999999996 0.0
0.0 5.999999999999996 0.0
0.0 5.899999999999997 0.0
0.0 5.799999999999997 0.0
0.0 5.699999999999996 0.0
0.0 5.599999999999996 0.0
0.0 5.499999999999996 0.0
0.0 5.399999999999995 0.0
0.0 5.299999999999995 0.0
0.0 5.199999999999996 0.0
0.0 5.099999999999996 0.0
0.0 4.999999999999998 0.0
0.0 4.899999999999999 0.0
0.0 4.799999999999997 0.0
0.0 4.699999999999998 0.0
0.0 4.599999999999998 0.0
0.0 4.499999999999996 0.0
0.0 4.399999999999997 0.0
0.0 4.299999999999997 0.0
0.0 4.199999999999998 0.0
0.0 4.099999999999998 0.0
0.0 3.999999999999996 0.0
0.0 3.899999999999999 0.0
0.0 3.799999999999997 0.0
0.0 3.699999999999996 0.0
0.0 3.599999999999998 0.0
0.0 3.5 0.0
0.0 3.399999999999999 0.0
0.0 3.299999999999997 0.0
0.0 3.199999999999999 0.0
0.0 3.099999999999998 0.0
0.0 3.0 0.0
0.0 2.899999999999999 0.0
0.0 2.799999999999997 0.0
0.0 2.699999999999999 0.0
0.0 2.599999999999998 0.0
0.0 2.499999999999996 0.0
0.0 2.399999999999999 0.0
0.0 2.299999999999997 0.0
0.0 2.199999999999999 0.0
0.0 2.100000000000001 0.0
0.0 2.0 0.0
0.0 1.899999999999999 0.0
0.0 1.800000000000001 0.0
0.0 1.699999999999999 0.0
0.0 1.599999999999998 0.0
0.0 1.5 0.0
0.0 1.399999999999999 0.0
0.0 1.299999999999997 0.0
0.0 1.199999999999999 0.0
0.0 1.099999999999998 0.0
0.0 1.0 0.0
0.0 0.8999999999999986 0.0
0.0 0.8000000000000007 0.0
0.0 0.6999999999999993 0.0
0.0 0.6000000000000014 0.0
0.0 0.5 0.0
0.0 0.3999999999999986 0.0
0.0 0.3000000000000007 0.0
0.0 0.1999999999999993 0.0
[...]
POINT_DATA 804
VECTORS displacement double
0.0 0.0 0.0
0.0 0.0 0.0
0.0 -0.0017868662078847043 0.0
0.0 -0.0017868662078847446 0.0
0.0 0.0 0.0
0.0 0.0 0.0
0.0 -0.0017868662078847047 0.0
0.0 -0.0017868662078847257 0.0
0.0 -8.485649380320372e-107 0.0
0.0 4.636799973084572e-106 0.0
0.0 -2.4441909665000158e-105 0.0
0.0 1.2840772293969175e-104 0.0
0.0 -6.730515494416292e-104 0.0
0.0 3.5195454019539974e-103 0.0
0.0 -1.835969302163544e-102 0.0
0.0 9.553005565036386e-102 0.0
0.0 -4.9574823402807534e-101 0.0
0.0 2.5655142679082045e-100 0.0
0.0 -1.3237904774201623e-99 0.0
0.0 6.8096963593042384e-99 0.0
0.0 -3.491589828144198e-98 0.0
0.0 1.7840963152962815e-97 0.0
0.0 -9.082650116959996e-97 0.0
0.0 4.605636814463723e-96 0.0
0.0 -2.325484075511643e-95 0.0
0.0 1.168752526974603e-94 0.0
0.0 -5.844196127011436e-94 0.0
0.0 2.905944332519802e-93 0.0
0.0 -1.4359027075427835e-92 0.0
0.0 7.045042658804005e-92 0.0
0.0 -3.4285870414887775e-91 0.0
0.0 1.6528812878712357e-90 0.0
0.0 -7.879482502321114e-90 0.0
0.0 3.705386990817557e-89 0.0
0.0 -1.7129055604920054e-88 0.0
0.0 7.741465244000989e-88 0.0
0.0 -3.3874253336011066e-87 0.0
0.0 1.4050201377809552e-86 0.0
0.0 -5.197539127488688e-86 0.0
0.0 1.283007129213509e-85 0.0
0.0 5.159947937809822e-85 0.0
0.0 -1.5078873291021646e-83 0.0
0.0 2.300372431316696e-82 0.0
0.0 -3.18507894093133e-81 0.0
0.0 4.315426719592953e-80 0.0
0.0 -5.785154312720303e-79 0.0
0.0 7.658869781495677e-78 0.0
0.0 -9.978889702509113e-77 0.0
0.0 1.275988072628297e-75 0.0
0.0 -1.5977186882764938e-74 0.0
0.0 1.9552648818976812e-73 0.0
0.0 -2.3341390600669616e-72 0.0
0.0 2.7123455078831097e-71 0.0
0.0 -3.060462246675978e-70 0.0
0.0 3.3430676343084226e-69 0.0
0.0 -3.5218287350051198e-68 0.0
0.0 3.560321348737609e-67 0.0
0.0 -3.43026075414777e-66 0.0
0.0 3.1183284319990197e-65 0.0
0.0 -2.6322827079543783e-64 0.0
0.0 2.004695467791793e-63 0.0
0.0 -1.2926467432363785e-62 0.0
0.0 5.721922992257379e-62 0.0
0.0 7.254608449761057e-62 0.0
0.0 -5.643498339067707e-60 0.0
0.0 8.490454501573125e-59 0.0
0.0 -9.08776623538854e-58 0.0
0.0 7.681881989152657e-57 0.0
0.0 -4.905082975395169e-56 0.0
0.0 1.6309440698699645e-55 0.0
0.0 1.2461008510273315e-54 0.0
0.0 -3.046823518842114e-53 0.0
0.0 3.484020715949502e-52 0.0
0.0 -2.7167507920093497e-51 0.0
0.0 1.25727495321949e-50 0.0
0.0 2.3957390845370795e-50 0.0
0.0 -1.2260081200485197e-48 0.0
0.0 1.4513085736134304e-47 0.0
0.0 -1.016121272436347e-46 0.0
0.0 2.74164022293166e-46 0.0
0.0 3.651605207159012e-45 0.0
0.0 -6.335686463817275e-44 0.0
0.0 5.046149490171812e-43 0.0
0.0 -1.576266161949289e-42 0.0
0.0 -1.5970908468313108e-41 0.0
0.0 2.8126840809547214e-40 0.0
0.0 -1.9760832873511273e-39 0.0
0.0 2.3564539896527772e-39 0.0
0.0 1.034721945170956e-37 0.0
0.0 -1.1702680541138753e-36 0.0
0.0 4.638799001401271e-36 0.0
0.0 3.024919756152388e-35 0.0
0.0 -5.556873832312563e-34 0.0
0.0 2.9212319788558025e-33 0.0
0.0 9.407963091136368e-33 0.0
0.0 -2.4824499656353284e-31 0.0
0.0 1.3235440382269844e-30 0.0
0.0 4.858327157547817e-30 0.0
0.0 -1.089965062811862e-28 0.0
0.0 4.327171450295781e-28 0.0
0.0 3.4148080779476004e-27 0.0
0.0 -4.3285440303494754e-26 0.0
0.0 4.743879237994483e-26 0.0
0.0 2.061808149940601e-24 0.0
0.0 -1.1874072073130815e-23 0.0
0.0 -5.64715070688685e-23 0.0
0.0 8.091950828169972e-22 0.0
0.0 1.1219032079433665e-22 0.0
0.0 -3.956819535276799e-20 0.0
0.0 9.123273807641362e-20 0.0
0.0 1.6595981509164856e-18 0.0
0.0 -6.697502994885004e-18 0.0
0.0 -6.668281929614227e-17 0.0
0.0 3.3005309753990393e-16 0.0
0.0 2.789233982744261e-15 0.0
0.0 -1.2500170657904591e-14 0.0
0.0 -1.2307269507158106e-13 0.0
0.0 3.112557747357699e-13 0.0
0.0 5.247571346057065e-12 0.0
0.0 1.7361400211211669e-12 0.0
0.0 -1.7939866209354706e-10 0.0
0.0 -7.070107480887349e-10 0.0
0.0 2.8744594709684464e-09 0.0
0.0 3.577539605547437e-08 0.0
0.0 1.0734771956962672e-07 0.0
0.0 -3.6536698895704397e-07 0.0
0.0 -5.293907577186561e-06 0.0
0.0 -2.9419859875036463e-05 0.0
0.0 -0.00010977135540385911 0.0
0.0 -0.00030749559293174203 0.0
0.0 -0.000673717847540027 0.0
0.0 -0.001174965367514564 0.0
0.0 -0.0016474057654924457 0.0
0.0 -0.00188831050364863 0.0
0.0 -0.0018578483152831367 0.0
0.0 -0.0017457928255476755 0.0
0.0 -0.001744680601043803 0.0
0.0 -0.0018142978969011416 0.0
0.0 -0.0018129554771449804 0.0
0.0 -0.0017657771161649375 0.0
0.0 -0.0017781808724129005 0.0
0.0 -0.0018082473576250624 0.0
0.0 -0.0017862082602388522 0.0
0.0 -0.0017745759418788514 0.0
0.0 -0.0017984311281018406 0.0
0.0 -0.0017918846793608216 0.0
0.0 -0.0017776280007781057 0.0
0.0 -0.0017941501198082506 0.0
0.0 -0.0017917606623513488 0.0
0.0 -0.001780312889656347 0.0
0.0 -0.001793264183269361 0.0
0.0 -0.0017898020949518839 0.0
0.0 -0.0017825198796881105 0.0
0.0 -0.0017934813882038128 0.0
0.0 -0.0017871762670223998 0.0
0.0 -0.001785207152313249 0.0
0.0 -0.0017930746540161474 0.0
0.0 -0.0017848738814796098 0.0
0.0 -0.0017886170943890744 0.0
0.0 -0.0017908458273798767 0.0
0.0 -0.0017845117720374191 0.0
0.0 -0.0017913504857790035 0.0
0.0 -0.0017872660294386861 0.0
0.0 -0.0017870827521530117 0.0
0.0 -0.001791006987485073 0.0
0.0 -0.0017852845047408572 0.0
0.0 -0.0017904768337581184 0.0
0.0 -0.0017876040270324172 0.0
0.0 -0.0017874173586447779 0.0
0.0 -0.0017903191018452593 0.0
0.0 -0.0017858126095847968 0.0
0.0 -0.001790520108206281 0.0
0.0 -0.0017868664895360504 0.0
0.0 -0.001788655501446401 0.0
0.0 -0.001788987269163459 0.0
0.0 -0.001786782831572361 0.0
0.0 -0.001790260592567878 0.0
0.0 -0.001786268936887528 0.0
0.0 -0.001790031479680802 0.0
0.0 -0.0017870952793419398 0.0
0.0 -0.0017888240514517626 0.0
0.0 -0.0017884522753961836 0.0
0.0 -0.001787522839063657 0.0
0.0 -0.001789543331432131 0.0
0.0 -0.0017867361901554126 0.0
0.0 -0.001789988591482663 0.0
0.0 -0.0017866224604677478 0.0
0.0 -0.0017898136817594038 0.0
0.0 -0.0017870241074065907 0.0
0.0 -0.0017892540924706417 0.0
0.0 -0.0017876751760820462 0.0
0.0 -0.0017885696094230548 0.0
0.0 -0.0017883466511117631 0.0
0.0 -0.0017879449554019586 0.0
0.0 -0.0017889026642655458 0.0
0.0 -0.0017874690187487828 0.0
0.0 -0.0017892954109591612 0.0
0.0 -0.001787156418544193 0.0
0.0 -0.0017895350681198985 0.0
0.0 -0.0017869800554157567 0.0
0.0 -0.0017896588747297688 0.0
0.0 -0.001786898001306018 0.0
0.0 -0.0017897093392424926 0.0
0.0 -0.0017868700680606095 0.0
0.0 -0.0017897224291953556 0.0
0.0 -0.0017868656400532354 0.0
0.0 -0.0017897228235450584 0.0
0.0 -0.0017897228235450404 0.0
0.0 -0.0017868656400532616 0.0
0.0 -0.0017897224291953415 0.0
0.0 -0.0017868700680606228 0.0
0.0 -0.0017897093392424703 0.0
0.0 -0.0017868980013060233 0.0
0.0 -0.0017896588747297571 0.0
0.0 -0.001786980055415778 0.0
0.0 -0.00178953506811987 0.0
0.0 -0.0017871564185441796 0.0
0.0 -0.0017892954109591486 0.0
0.0 -0.0017874690187488036 0.0
0.0 -0.0017889026642655373 0.0
0.0 -0.001787944955401984 0.0
0.0 -0.0017883466511117493 0.0
0.0 -0.0017885696094230791 0.0
0.0 -0.0017876751760820422 0.0
0.0 -0.0017892540924706528 0.0
0.0 -0.0017870241074065681 0.0
0.0 -0.0017898136817594064 0.0
0.0 -0.0017866224604677608 0.0
0.0 -0.0017899885914826358 0.0
0.0 -0.0017867361901554414 0.0
0.0 -0.0017895433314320875 0.0
0.0 -0.0017875228390637065 0.0
0.0 -0.0017884522753961291 0.0
0.0 -0.0017888240514518465 0.0
0.0 -0.0017870952793418767 0.0
0.0 -0.001790031479680855 0.0
0.0 -0.0017862689368875109 0.0
0.0 -0.001790260592567836 0.0
0.0 -0.0017867828315724472 0.0
0.0 -0.0017889872691633345 0.0
0.0 -0.0017886555014465495 0.0
0.0 -0.0017868664895359138 0.0
0.0 -0.0017905201082063457 0.0
0.0 -0.0017858126095848341 0.0
0.0 -0.0017903191018451108 0.0
0.0 -0.0017874173586449943 0.0
0.0 -0.0017876040270321792 0.0
0.0 -0.0017904768337583003 0.0
0.0 -0.0017852845047408284 0.0
0.0 -0.0017910069874849035 0.0
0.0 -0.0017870827521533092 0.0
0.0 -0.0017872660294383192 0.0
0.0 -0.0017913504857792182 0.0
0.0 -0.0017845117720374994 0.0
0.0 -0.0017908458273794981 0.0
0.0 -0.0017886170943895948 0.0
0.0 -0.0017848738814792264 0.0
0.0 -0.0017930746540160889 0.0
0.0 -0.0017852071523138027 0.0
0.0 -0.001787176267021668 0.0
0.0 -0.0017934813882041856 0.0
0.0 -0.0017825198796884811 0.0
0.0 -0.0017898020949508888 0.0
0.0 -0.001793264183270161 0.0
0.0 -0.001780312889656559 0.0
0.0 -0.0017917606623500631 0.0
0.0 -0.0017941501198094573 0.0
0.0 -0.0017776280007784095 0.0
0.0 -0.0017918846793589115 0.0
0.0 -0.001798431128103256 0.0
0.0 -0.0017745759418801002 0.0
0.0 -0.0017862082602359386 0.0
0.0 -0.0018082473576254605 0.0
0.0 -0.0017781808724166741 0.0
0.0 -0.0017657771161623786 0.0
0.0 -0.0018129554771405749 0.0
0.0 -0.0018142978969061762 0.0
0.0 -0.0017446806010499956 0.0
0.0 -0.0017457928255398792 0.0
0.0 -0.0018578483152707347 0.0
0.0 -0.001888310503658721 0.0
0.0 -0.0016474057655358975 0.0
0.0 -0.0011749653675748187 0.0
0.0 -0.0006737178475927088 0.0
0.0 -0.00030749559296476233 0.0
0.0 -0.00010977135541925485 0.0
0.0 -2.9419859880363806e-05 0.0
0.0 -5.293907578484537e-06 0.0
0.0 -3.6536698913741805e-07 0.0
0.0 1.073477195746522e-07 0.0
0.0 3.577539606378956e-08 0.0
0.0 2.8744594724250958e-09 0.0
0.0 -7.07010748139118e-10 0.0
0.0 -1.793986621495111e-10 0.0
0.0 1.7361400163146126e-12 0.0
0.0 5.247571347330782e-12 0.0
0.0 3.112557749713996e-13 0.0
0.0 -1.2307269509479718e-13 0.0
0.0 -1.2500170665319694e-14 0.0
0.0 2.7892339831829503e-15 0.0
0.0 3.300530977365382e-16 0.0
0.0 -6.668281930753747e-17 0.0
0.0 -6.69750299954419e-18 0.0
0.0 1.6595981513018582e-18 0.0
0.0 9.123273817159977e-20 0.0
0.0 -3.956819536573218e-20 0.0
0.0 1.1219031936478802e-22 0.0
0.0 8.091950831867363e-22 0.0
0.0 -5.647150706394724e-23 0.0
0.0 -1.1874072081237245e-23 0.0
0.0 2.0618081505171423e-24 0.0
0.0 4.743879249117411e-26 0.0
0.0 -4.3285440325626683e-26 0.0
0.0 3.41480807804832e-27 0.0
0.0 4.327171454423993e-28 0.0
0.0 -1.0899650632988807e-28 0.0
0.0 4.8583271556587964e-30 0.0
0.0 1.323544039350219e-30 0.0
0.0 -2.482449966732314e-31 0.0
0.0 9.407963085692174e-33 0.0
0.0 2.921231981525525e-33 0.0
0.0 -5.5568738351302095e-34 0.0
0.0 3.0249197556689155e-35 0.0
0.0 4.638799006868837e-36 0.0
0.0 -1.170268054862639e-36 0.0
0.0 1.0347219454325342e-37 0.0
0.0 2.356453997631263e-39 0.0
0.0 -1.9760832890716028e-39 0.0
0.0 2.812684082587989e-40 0.0
0.0 -1.5970908469984338e-41 0.0
0.0 -1.5762661640456197e-42 0.0
0.0 5.046149493961577e-43 0.0
0.0 -6.335686467337575e-44 0.0
0.0 3.6516052079470407e-45 0.0
0.0 2.7416402264570533e-46 0.0
0.0 -1.0161212731845303e-46 0.0
0.0 1.4513085745289213e-47 0.0
0.0 -1.2260081208481544e-48 0.0
0.0 2.395739090483338e-50 0.0
0.0 1.2572749524183319e-50 0.0
0.0 -2.716750789747134e-51 0.0
0.0 3.484020709669667e-52 0.0
0.0 -3.046823503835598e-53 0.0
0.0 1.246100818597242e-54 0.0
0.0 1.6309441363806376e-55 0.0
0.0 -4.905083108880463e-56 0.0
0.0 7.681882255425867e-57 0.0
0.0 -9.087766766064251e-58 0.0
0.0 8.490455557923147e-59 0.0
0.0 -5.643500434716896e-60 0.0
0.0 7.254649795092962e-62 0.0
0.0 5.721914892257212e-62 0.0
0.0 -1.2926451687653465e-62 0.0
0.0 2.004692432397269e-63 0.0
0.0 -2.6322769046434065e-64 0.0
0.0 3.118317429029761e-65 0.0
0.0 -3.4302400665103003e-66 0.0
0.0 3.560282779133091e-67 0.0
0.0 -3.521757444383747e-68 0.0
0.0 3.3429370386768503e-69 0.0
0.0 -3.060225268691296e-70 0.0
0.0 2.7119198720249336e-71 0.0
0.0 -2.333383192767708e-72 0.0
0.0 1.953939744168911e-73 0.0
0.0 -1.5954302777274203e-74 0.0
0.0 1.2721075800188853e-75 0.0
0.0 -9.914582977643498e-77 0.0
0.0 7.55549993980387e-78 0.0
0.0 -5.62600751681094e-79 0.0
0.0 4.0863022854810284e-80 0.0
0.0 -2.8928711077198565e-81 0.0
0.0 2.0232466966597186e-82 0.0
0.0 -1.5187986990799268e-83 0.0
0.0 1.570588042780392e-84 0.0
0.0 -2.700730298876511e-85 0.0
0.0 6.1478396775438005e-86 0.0
0.0 -1.4679585283940195e-86 0.0
0.0 3.428735617663272e-87 0.0
0.0 -7.768515101959161e-88 0.0
0.0 1.7146998499129135e-88 0.0
0.0 -3.7066347920944575e-89 0.0
0.0 7.880454192572203e-90 0.0
0.0 -1.6529736218025675e-90 0.0
0.0 3.4286985833277245e-91 0.0
0.0 -7.045206313800774e-92 0.0
0.0 1.4359297208502804e-92 0.0
0.0 -2.905991877933707e-93 0.0
0.0 5.844282895230204e-94 0.0
0.0 -1.1687687071862254e-94 0.0
0.0 2.3255146318408987e-95 0.0
0.0 -4.6056948872873536e-96 0.0
0.0 9.082760665064574e-97 0.0
0.0 -1.78411731956425e-97 0.0
0.0 3.491629558931825e-98 0.0
0.0 -6.809771041912965e-99 0.0
0.0 1.3238044102081473e-99 0.0
0.0 -2.565540043870354e-100 0.0
0.0 4.9575296020169723e-101 0.0
0.0 -9.553091421335264e-102 0.0
0.0 1.83598475172461e-102 0.0
0.0 -3.51957293804553e-103 0.0
0.0 6.730564104705128e-104 0.0
0.0 -1.2840857294969301e-104 0.0
0.0 2.444205691154515e-105 0.0
0.0 -4.636825229798229e-106 0.0
0.0 8.485691176370987e-107 0.0
0.0 8.485916312556948e-107 0.0
0.0 -4.637217738926002e-106 0.0
0.0 2.444533250692976e-105 0.0
0.0 -1.2843025394214502e-104 0.0
0.0 6.731834018698328e-104 0.0
0.0 -3.520256380415039e-103 0.0
0.0 1.836327612218885e-102 0.0
0.0 -9.554699507215837e-102 0.0
0.0 4.9582303061149867e-101 0.0
0.0 -2.5658182306752586e-100 0.0
0.0 1.3239001768646602e-99 0.0
0.0 -6.810014234080037e-99 0.0
0.0 3.4916327633982145e-98 0.0
0.0 -1.7840636478393368e-97 0.0
0.0 9.082253174846391e-97 0.0
0.0 -4.605346342115648e-96 0.0
0.0 2.3253066910121528e-95 0.0
0.0 -1.1686544501527581e-94 0.0
0.0 5.843686092017382e-94 0.0
0.0 -2.9056877211086064e-93 0.0
0.0 1.4357741530423832e-92 0.0
0.0 -7.04438279922118e-92 0.0
0.0 3.428235672583978e-91 0.0
0.0 -1.6526948971195487e-90 0.0
0.0 7.878677743912492e-90 0.0
0.0 -3.705463539956599e-89 0.0
0.0 1.713918347331788e-88 0.0
0.0 -7.763317919333972e-88 0.0
0.0 3.425320370240546e-87 0.0
0.0 -1.4657498066108481e-86 0.0
0.0 6.1338013810401344e-86 0.0
0.0 -2.6919624277432683e-85 0.0
0.0 1.5652048384017483e-84 0.0
0.0 -1.5155484422094388e-83 0.0
0.0 2.021316639933882e-82 0.0
0.0 -2.8917442887717914e-81 0.0
0.0 4.085656048975928e-80 0.0
0.0 -5.625643989005492e-79 0.0
0.0 7.555299789182063e-78 0.0
0.0 -9.91447542936688e-77 0.0
0.0 1.2721019602235243e-75 0.0
0.0 -1.5954274338733718e-74 0.0
0.0 1.953938356142912e-73 0.0
0.0 -2.3333825405936854e-72 0.0
0.0 2.711919575174088e-71 0.0
0.0 -3.0602251338643235e-70 0.0
0.0 3.3429369726672773e-69 0.0
0.0 -3.521757405379619e-68 0.0
0.0 3.5602827503065035e-67 0.0
0.0 -3.430240042246561e-66 0.0
0.0 3.1183174081265525e-65 0.0
0.0 -2.6322768872105703e-64 0.0
0.0 2.0046924186235973e-63 0.0
0.0 -1.2926451585572937e-62 0.0
0.0 5.721914822040517e-62 0.0
0.0 7.254650234433786e-62 0.0
0.0 -5.64350045860833e-60 0.0
0.0 8.490455567822182e-59 0.0
0.0 -9.087766767292292e-58 0.0
0.0 7.681882252276708e-57 0.0
0.0 -4.905083104486561e-56 0.0
0.0 1.6309441327035492e-55 0.0
0.0 1.2461008206644584e-54 0.0
0.0 -3.0468235042584432e-53 0.0
0.0 3.484020708973557e-52 0.0
0.0 -2.71675078867642e-51 0.0
0.0 1.2572749516224096e-50 0.0
0.0 2.3957390922551734e-50 0.0
0.0 -1.2260081204271741e-48 0.0
0.0 1.4513085738034094e-47 0.0
0.0 -1.0161212725343767e-46 0.0
0.0 2.7416402234537173e-46 0.0
0.0 3.651605206872078e-45 0.0
0.0 -6.335686463655665e-44 0.0
0.0 5.046149490078981e-43 0.0
0.0 -1.5762661618953812e-42 0.0
0.0 -1.597090846862716e-41 0.0
0.0 2.812684080973019e-40 0.0
0.0 -1.9760832873616836e-39 0.0
0.0 2.3564539897133337e-39 0.0
0.0 1.034721945167464e-37 0.0
0.0 -1.1702680541118678e-36 0.0
0.0 4.638799001389794e-36 0.0
0.0 3.0249197561589627e-35 0.0
0.0 -5.556873832316358e-34 0.0
0.0 2.9212319788579678e-33 0.0
0.0 9.407963091124288e-33 0.0
0.0 -2.482449965634691e-31 0.0
0.0 1.3235440382266938e-30 0.0
0.0 4.858327157549123e-30 0.0
0.0 -1.0899650628119041e-28 0.0
0.0 4.327171450295885e-28 0.0
0.0 3.414808077947513e-27 0.0
0.0 -4.3285440303493365e-26 0.0
0.0 4.743879237993433e-26 0.0
0.0 2.06180814994068e-24 0.0
0.0 -1.1874072073131344e-23 0.0
0.0 -5.647150706886643e-23 0.0
0.0 8.0919508281698e-22 0.0
0.0 1.121903207944541e-22 0.0
0.0 -3.956819535276881e-20 0.0
0.0 9.123273807641737e-20 0.0
0.0 1.6595981509165105e-18 0.0
0.0 -6.697502994885584e-18 0.0
0.0 -6.668281929614223e-17 0.0
0.0 3.3005309753989486e-16 0.0
0.0 2.789233982744397e-15 0.0
0.0 -1.250017065790563e-14 0.0
0.0 -1.2307269507158394e-13 0.0
0.0 3.112557747357926e-13 0.0
0.0 5.247571346056777e-12 0.0
0.0 1.7361400211240212e-12 0.0
0.0 -1.7939866209355815e-10 0.0
0.0 -7.070107480886832e-10 0.0
0.0 2.8744594709683703e-09 0.0
0.0 3.577539605547425e-08 0.0
0.0 1.0734771956962047e-07 0.0
0.0 -3.6536698895697965e-07 0.0
0.0 -5.293907577186922e-06 0.0
0.0 -2.9419859875036335e-05 0.0
0.0 -0.00010977135540385714 0.0
0.0 -0.0003074955929317409 0.0
0.0 -0.0006737178475400163 0.0
0.0 -0.00117496536751457 0.0
0.0 -0.001647405765492448 0.0
0.0 -0.0018883105036486241 0.0
0.0 -0.001857848315283138 0.0
0.0 -0.0017457928255476766 0.0
0.0 -0.0017446806010438028 0.0
0.0 -0.0018142978969011348 0.0
0.0 -0.0018129554771449787 0.0
0.0 -0.0017657771161649508 0.0
0.0 -0.0017781808724129087 0.0
0.0 -0.0018082473576250479 0.0
0.0 -0.0017862082602388488 0.0
0.0 -0.0017745759418788492 0.0
0.0 -0.0017984311281018302 0.0
0.0 -0.0017918846793608066 0.0
0.0 -0.0017776280007780981 0.0
0.0 -0.0017941501198082484 0.0
0.0 -0.0017917606623513427 0.0
0.0 -0.0017803128896563523 0.0
0.0 -0.0017932641832693508 0.0
0.0 -0.0017898020949518754 0.0
0.0 -0.0017825198796881127 0.0
0.0 -0.001793481388203802 0.0
0.0 -0.0017871762670224006 0.0
0.0 -0.0017852071523132616 0.0
0.0 -0.0017930746540161533 0.0
0.0 -0.0017848738814795926 0.0
0.0 -0.001788617094389072 0.0
0.0 -0.001790845827379874 0.0
0.0 -0.001784511772037422 0.0
0.0 -0.0017913504857789942 0.0
0.0 -0.0017872660294386729 0.0
0.0 -0.0017870827521530145 0.0
0.0 -0.0017910069874850732 0.0
0.0 -0.0017852845047408566 0.0
0.0 -0.0017904768337581264 0.0
0.0 -0.0017876040270323945 0.0
0.0 -0.0017874173586447815 0.0
0.0 -0.0017903191018452409 0.0
0.0 -0.0017858126095848098 0.0
0.0 -0.001790520108206288 0.0
0.0 -0.0017868664895360387 0.0
0.0 -0.0017886555014463932 0.0
0.0 -0.0017889872691634564 0.0
0.0 -0.001786782831572358 0.0
0.0 -0.0017902605925678848 0.0
0.0 -0.0017862689368875156 0.0
0.0 -0.0017900314796808106 0.0
0.0 -0.0017870952793419448 0.0
0.0 -0.0017888240514517654 0.0
0.0 -0.0017884522753961857 0.0
0.0 -0.001787522839063648 0.0
0.0 -0.0017895433314321226 0.0
0.0 -0.0017867361901554221 0.0
0.0 -0.0017899885914826475 0.0
0.0 -0.0017866224604677677 0.0
0.0 -0.0017898136817594023 0.0
0.0 -0.001787024107406572 0.0
0.0 -0.0017892540924706285 0.0
0.0 -0.0017876751760820555 0.0
0.0 -0.0017885696094230574 0.0
0.0 -0.0017883466511117627 0.0
0.0 -0.0017879449554019644 0.0
0.0 -0.00178890266426555 0.0
0.0 -0.0017874690187487882 0.0
0.0 -0.00178929541095917 0.0
0.0 -0.0017871564185441761 0.0
0.0 -0.0017895350681198805 0.0
0.0 -0.0017869800554157602 0.0
0.0 -0.0017896588747297667 0.0
0.0 -0.0017868980013060036 0.0
0.0 -0.0017897093392424855 0.0
0.0 -0.0017868700680606147 0.0
0.0 -0.0017897224291953519 0.0
0.0 -0.0017868656400532369 0.0
0.0 -0.0017897228235450565 0.0
0.0 -0.001789722823545047 0.0
0.0 -0.0017868656400532484 0.0
0.0 -0.001789722429195334 0.0
0.0 -0.0017868700680606338 0.0
0.0 -0.0017897093392424694 0.0
0.0 -0.001786898001306022 0.0
0.0 -0.0017896588747297482 0.0
0.0 -0.0017869800554157582 0.0
0.0 -0.001789535068119869 0.0
0.0 -0.0017871564185441928 0.0
0.0 -0.0017892954109591565 0.0
0.0 -0.0017874690187488032 0.0
0.0 -0.0017889026642655223 0.0
0.0 -0.0017879449554019796 0.0
0.0 -0.0017883466511117506 0.0
0.0 -0.0017885696094230802 0.0
0.0 -0.0017876751760820362 0.0
0.0 -0.001789254092470669 0.0
0.0 -0.001787024107406586 0.0
0.0 -0.0017898136817594019 0.0
0.0 -0.0017866224604677437 0.0
0.0 -0.001789988591482643 0.0
0.0 -0.0017867361901554365 0.0
0.0 -0.0017895433314320955 0.0
0.0 -0.001787522839063721 0.0
0.0 -0.0017884522753961179 0.0
0.0 -0.0017888240514518329 0.0
0.0 -0.0017870952793418702 0.0
0.0 -0.0017900314796808587 0.0
0.0 -0.0017862689368875239 0.0
0.0 -0.0017902605925678408 0.0
0.0 -0.0017867828315724509 0.0
0.0 -0.0017889872691633252 0.0
0.0 -0.0017886555014465452 0.0
0.0 -0.001786866489535914 0.0
0.0 -0.0017905201082063316 0.0
0.0 -0.0017858126095848174 0.0
0.0 -0.0017903191018451183 0.0
0.0 -0.0017874173586449845 0.0
0.0 -0.0017876040270321753 0.0
0.0 -0.0017904768337583005 0.0
0.0 -0.0017852845047408342 0.0
0.0 -0.001791006987484907 0.0