# vtk DataFile Version 2.0
data_280
ASCII
DATASET UNSTRUCTURED_GRID
POINTS 804 float
0.0 0.0 0.0
0.1 0.0 0.0
0.1 20.0 0.0
0.0 20.0 0.0
0.0 0.0 -0.1
0.1 0.0 -0.1
0.1 20.0 -0.1
0.0 20.0 -0.1
0.1 0.09999999999992462 0.0
0.1 0.1999999999998517 0.0
0.1 0.2999999999997818 0.0
0.1 0.399999999999712 0.0
0.1 0.4999999999996377 0.0
0.1 0.5999999999995541 0.0
0.1 0.6999999999994495 0.0
0.1 0.7999999999993355 0.0
0.1 0.8999999999992101 0.0
0.1 0.999999999999102 0.0
0.1 1.099999999999006 0.0
0.1 1.199999999998936 0.0
0.1 1.299999999998867 0.0
0.1 1.399999999998797 0.0
0.1 1.499999999998727 0.0
0.1 1.599999999998657 0.0
0.1 1.699999999998587 0.0
0.1 1.799999999998517 0.0
0.1 1.899999999998447 0.0
0.1 1.999999999998378 0.0
0.1 2.099999999998308 0.0
0.1 2.199999999998238 0.0
0.1 2.299999999998168 0.0
0.1 2.399999999998067 0.0
0.1 2.499999999997942 0.0
0.1 2.599999999997706 0.0
0.1 2.699999999997444 0.0
0.1 2.799999999997153 0.0
0.1 2.899999999996861 0.0
0.1 2.999999999996569 0.0
0.1 3.099999999996277 0.0
0.1 3.199999999995984 0.0
0.1 3.299999999995693 0.0
0.1 3.399999999995401 0.0
0.1 3.499999999995108 0.0
0.1 3.599999999994816 0.0
0.1 3.699999999994525 0.0
0.1 3.799999999994232 0.0
0.1 3.89999999999394 0.0
0.1 3.999999999993648 0.0
0.1 4.099999999993356 0.0
0.1 4.199999999993064 0.0
0.1 4.299999999992772 0.0
0.1 4.399999999992479 0.0
0.1 4.499999999992188 0.0
0.1 4.599999999991895 0.0
0.1 4.699999999991603 0.0
0.1 4.799999999991311 0.0
0.1 4.899999999991019 0.0
0.1 4.999999999990727 0.0
0.1 5.099999999990436 0.0
0.1 5.199999999990144 0.0
0.1 5.299999999989851 0.0
0.1 5.399999999989559 0.0
0.1 5.499999999989267 0.0
0.1 5.599999999988975 0.0
0.1 5.699999999988683 0.0
0.1 5.799999999988391 0.0
0.1 5.899999999988099 0.0
0.1 5.999999999987806 0.0
0.1 6.099999999987515 0.0
0.1 6.199999999987222 0.0
0.1 6.299999999986929 0.0
0.1 6.399999999986638 0.0
0.1 6.499999999986345 0.0
0.1 6.599999999986054 0.0
0.1 6.699999999985762 0.0
0.1 6.79999999998547 0.0
0.1 6.899999999985177 0.0
0.1 6.999999999984885 0.0
0.1 7.099999999984593 0.0
0.1 7.199999999984302 0.0
0.1 7.299999999984009 0.0
0.1 7.399999999983717 0.0
0.1 7.499999999983426 0.0
0.1 7.599999999983132 0.0
0.1 7.699999999982841 0.0
0.1 7.799999999982549 0.0
0.1 7.899999999982256 0.0
0.1 7.999999999982034 0.0
0.1 8.099999999981964 0.0
0.1 8.199999999982062 0.0
0.1 8.299999999982214 0.0
0.1 8.399999999982366 0.0
0.1 8.499999999982517 0.0
0.1 8.59999999998267 0.0
0.1 8.699999999982822 0.0
0.1 8.799999999982973 0.0
0.1 8.899999999983125 0.0
0.1 8.999999999983277 0.0
0.1 9.09999999998343 0.0
0.1 9.19999999998358 0.0
0.1 9.299999999983733 0.0
0.1 9.399999999983885 0.0
0.1 9.499999999984038 0.0
0.1 9.599999999984188 0.0
0.1 9.69999999998434 0.0
0.1 9.799999999984493 0.0
0.1 9.899999999984646 0.0
0.1 9.999999999984798 0.0
0.1 10.09999999998495 0.0
0.1 10.1999999999851 0.0
0.1 10.29999999998525 0.0
0.1 10.39999999998541 0.0
0.1 10.49999999998556 0.0
0.1 10.59999999998571 0.0
0.1 10.69999999998586 0.0
0.1 10.79999999998601 0.0
0.1 10.89999999998616 0.0
0.1 10.99999999998632 0.0
0.1 11.09999999998647 0.0
0.1 11.19999999998662 0.0
0.1 11.29999999998677 0.0
0.1 11.39999999998693 0.0
0.1 11.49999999998708 0.0
0.1 11.59999999998723 0.0
0.1 11.69999999998738 0.0
0.1 11.79999999998754 0.0
0.1 11.89999999998769 0.0
0.1 11.99999999998784 0.0
0.1 12.09999999998799 0.0
0.1 12.19999999998814 0.0
0.1 12.2999999999883 0.0
0.1 12.39999999998845 0.0
0.1 12.4999999999886 0.0
0.1 12.59999999998875 0.0
0.1 12.6999999999889 0.0
0.1 12.79999999998905 0.0
0.1 12.89999999998921 0.0
0.1 12.99999999998936 0.0
0.1 13.09999999998951 0.0
0.1 13.19999999998966 0.0
0.1 13.29999999998982 0.0
0.1 13.39999999998997 0.0
0.1 13.49999999999012 0.0
0.1 13.59999999999027 0.0
0.1 13.69999999999042 0.0
0.1 13.79999999999057 0.0
0.1 13.89999999999073 0.0
0.1 13.99999999999088 0.0
0.1 14.09999999999103 0.0
0.1 14.19999999999118 0.0
0.1 14.29999999999134 0.0
0.1 14.39999999999149 0.0
0.1 14.49999999999164 0.0
0.1 14.59999999999179 0.0
0.1 14.69999999999194 0.0
0.1 14.7999999999921 0.0
0.1 14.89999999999225 0.0
0.1 14.9999999999924 0.0
0.1 15.09999999999255 0.0
0.1 15.1999999999927 0.0
0.1 15.29999999999285 0.0
0.1 15.39999999999301 0.0
0.1 15.49999999999316 0.0
0.1 15.59999999999331 0.0
0.1 15.69999999999346 0.0
0.1 15.79999999999362 0.0
0.1 15.89999999999377 0.0
0.1 15.99999999999392 0.0
0.1 16.09999999999407 0.0
0.1 16.19999999999422 0.0
0.1 16.29999999999437 0.0
0.1 16.39999999999453 0.0
0.1 16.49999999999468 0.0
0.1 16.59999999999483 0.0
0.1 16.69999999999498 0.0
0.1 16.79999999999514 0.0
0.1 16.89999999999528 0.0
0.1 16.99999999999544 0.0
0.1 17.09999999999559 0.0
0.1 17.19999999999574 0.0
0.1 17.29999999999589 0.0
0.1 17.39999999999605 0.0
0.1 17.4999999999962 0.0
0.1 17.59999999999635 0.0
0.1 17.6999999999965 0.0
0.1 17.79999999999665 0.0
0.1 17.89999999999681 0.0
0.1 17.99999999999696 0.0
0.1 18.09999999999711 0.0
0.1 18.19999999999726 0.0
0.1 18.29999999999742 0.0
0.1 18.39999999999757 0.0
0.1 18.49999999999772 0.0
0.1 18.59999999999787 0.0
0.1 18.69999999999802 0.0
0.1 18.79999999999818 0.0
0.1 18.89999999999833 0.0
0.1 18.99999999999848 0.0
0.1 19.09999999999863 0.0
0.1 19.19999999999878 0.0
0.1 19.29999999999894 0.0
0.1 19.39999999999909 0.0
0.1 19.49999999999924 0.0
0.1 19.59999999999939 0.0
0.1 19.69999999999955 0.0
0.1 19.7999999999997 0.0
0.1 19.89999999999985 0.0
0.0 19.9 0.0
0.0 19.8 0.0
0.0 19.7 0.0
0.0 19.6 0.0
0.0 19.5 0.0
0.0 19.4 0.0
0.0 19.3 0.0
0.0 19.2 0.0
0.0 19.1 0.0
0.0 19.0 0.0
0.0 18.9 0.0
0.0 18.8 0.0
0.0 18.7 0.0
0.0 18.6 0.0
0.0 18.5 0.0
0.0 18.4 0.0
0.0 18.3 0.0
0.0 18.2 0.0
0.0 18.1 0.0
0.0 18.0 0.0
0.0 17.9 0.0
0.0 17.8 0.0
0.0 17.7 0.0
0.0 17.6 0.0
0.0 17.5 0.0
0.0 17.4 0.0
0.0 17.3 0.0
0.0 17.2 0.0
0.0 17.09999999999999 0.0
0.0 17.0 0.0
0.0 16.9 0.0
0.0 16.8 0.0
0.0 16.7 0.0
0.0 16.59999999999999 0.0
0.0 16.49999999999999 0.0
0.0 16.4 0.0
0.0 16.29999999999999 0.0
0.0 16.2 0.0
0.0 16.09999999999999 0.0
0.0 15.99999999999999 0.0
0.0 15.89999999999999 0.0
0.0 15.79999999999999 0.0
0.0 15.69999999999999 0.0
0.0 15.59999999999999 0.0
0.0 15.49999999999999 0.0
0.0 15.39999999999999 0.0
0.0 15.29999999999999 0.0
0.0 15.19999999999999 0.0
0.0 15.09999999999999 0.0
0.0 14.99999999999999 0.0
0.0 14.89999999999999 0.0
0.0 14.79999999999999 0.0
0.0 14.69999999999999 0.0
0.0 14.59999999999999 0.0
0.0 14.49999999999999 0.0
0.0 14.39999999999999 0.0
0.0 14.29999999999999 0.0
0.0 14.19999999999999 0.0
0.0 14.09999999999999 0.0
0.0 13.99999999999999 0.0
0.0 13.89999999999999 0.0
0.0 13.79999999999999 0.0
0.0 13.69999999999999 0.0
0.0 13.59999999999999 0.0
0.0 13.49999999999999 0.0
0.0 13.39999999999999 0.0
0.0 13.29999999999999 0.0
0.0 13.19999999999999 0.0
0.0 13.09999999999999 0.0
0.0 12.99999999999999 0.0
0.0 12.89999999999999 0.0
0.0 12.79999999999999 0.0
0.0 12.69999999999999 0.0
0.0 12.59999999999999 0.0
0.0 12.49999999999999 0.0
0.0 12.39999999999999 0.0
0.0 12.29999999999999 0.0
0.0 12.19999999999999 0.0
0.0 12.09999999999999 0.0
0.0 11.99999999999999 0.0
0.0 11.89999999999999 0.0
0.0 11.79999999999999 0.0
0.0 11.69999999999999 0.0
0.0 11.59999999999999 0.0
0.0 11.49999999999999 0.0
0.0 11.39999999999999 0.0
0.0 11.29999999999999 0.0
0.0 11.19999999999999 0.0
0.0 11.09999999999999 0.0
0.0 10.99999999999999 0.0
0.0 10.89999999999999 0.0
0.0 10.79999999999999 0.0
0.0 10.69999999999999 0.0
0.0 10.59999999999999 0.0
0.0 10.49999999999999 0.0
0.0 10.39999999999999 0.0
0.0 10.29999999999999 0.0
0.0 10.19999999999999 0.0
0.0 10.09999999999999 0.0
0.0 9.999999999999993 0.0
0.0 9.899999999999993 0.0
0.0 9.799999999999994 0.0
0.0 9.699999999999992 0.0
0.0 9.599999999999993 0.0
0.0 9.499999999999993 0.0
0.0 9.399999999999993 0.0
0.0 9.299999999999995 0.0
0.0 9.199999999999996 0.0
0.0 9.099999999999994 0.0
0.0 8.999999999999995 0.0
0.0 8.899999999999995 0.0
0.0 8.799999999999994 0.0
0.0 8.699999999999994 0.0
0.0 8.599999999999994 0.0
0.0 8.499999999999995 0.0
0.0 8.399999999999995 0.0
0.0 8.299999999999994 0.0
0.0 8.199999999999994 0.0
0.0 8.099999999999994 0.0
0.0 7.999999999999993 0.0
0.0 7.899999999999995 0.0
0.0 7.799999999999995 0.0
0.0 7.699999999999996 0.0
0.0 7.599999999999996 0.0
0.0 7.499999999999996 0.0
0.0 7.399999999999995 0.0
0.0 7.299999999999995 0.0
0.0 7.199999999999996 0.0
0.0 7.099999999999994 0.0
0.0 6.999999999999995 0.0
0.0 6.899999999999995 0.0
0.0 6.799999999999995 0.0
0.0 6.699999999999996 0.0
0.0 6.599999999999994 0.0
0.0 6.499999999999995 0.0
0.0 6.399999999999997 0.0
0.0 6.299999999999997 0.0
0.0 6.199999999999996 0.0
0.0 6.099999999999996 0.0
0.0 5.999999999999996 0.0
0.0 5.899999999999997 0.0
0.0 5.799999999999997 0.0
0.0 5.699999999999996 0.0
0.0 5.599999999999996 0.0
0.0 5.499999999999996 0.0
0.0 5.399999999999995 0.0
0.0 5.299999999999995 0.0
0.0 5.199999999999996 0.0
0.0 5.099999999999996 0.0
0.0 4.999999999999998 0.0
0.0 4.899999999999999 0.0
0.0 4.799999999999997 0.0
0.0 4.699999999999998 0.0
0.0 4.599999999999998 0.0
0.0 4.499999999999996 0.0
0.0 4.399999999999997 0.0
0.0 4.299999999999997 0.0
0.0 4.199999999999998 0.0
0.0 4.099999999999998 0.0
0.0 3.999999999999996 0.0
0.0 3.899999999999999 0.0
0.0 3.799999999999997 0.0
0.0 3.699999999999996 0.0
0.0 3.599999999999998 0.0
0.0 3.5 0.0
0.0 3.399999999999999 0.0
0.0 3.299999999999997 0.0
0.0 3.199999999999999 0.0
0.0 3.099999999999998 0.0
0.0 3.0 0.0
0.0 2.899999999999999 0.0
0.0 2.799999999999997 0.0
0.0 2.699999999999999 0.0
0.0 2.599999999999998 0.0
0.0 2.499999999999996 0.0
0.0 2.399999999999999 0.0
0.0 2.299999999999997 0.0
0.0 2.199999999999999 0.0
0.0 2.100000000000001 0.0
0.0 2.0 0.0
0.0 1.899999999999999 0.0
0.0 1.800000000000001 0.0
0.0 1.699999999999999 0.0
0.0 1.599999999999998 0.0
0.0 1.5 0.0
0.0 1.399999999999999 0.0
0.0 1.299999999999997 0.0
0.0 1.199999999999999 0.0
0.0 1.099999999999998 0.0
0.0 1.0 0.0
0.0 0.8999999999999986 0.0
0.0 0.8000000000000007 0.0
0.0 0.6999999999999993 0.0
0.0 0.6000000000000014 0.0
0.0 0.5 0.0
0.0 0.3999999999999986 0.0
0.0 0.3000000000000007 0.0
0.0 0.1999999999999993 0.0
[...]
POINT_DATA 804
VECTORS displacement double
0.0 0.0 0.0
0.0 0.0 0.0
0.0 -0.0017873407229853024 0.0
0.0 -0.0017873407229853041 0.0
0.0 0.0 0.0
0.0 0.0 0.0
0.0 -0.0017873407229853048 0.0
0.0 -0.0017873407229853154 0.0
0.0 -3.692224033609206e-06 0.0
0.0 2.5491062063343804e-05 0.0
0.0 5.2005918968373336e-05 0.0
0.0 -1.3057438051069741e-05 0.0
0.0 -0.00022752231828902157 0.0
0.0 -0.0005600426412053472 0.0
0.0 -0.0009204054629360506 0.0
0.0 -0.0012331891395735786 0.0
0.0 -0.0014701697839864735 0.0
0.0 -0.0016299179085628496 0.0
0.0 -0.0017194149725068882 0.0
0.0 -0.0017585924676492243 0.0
0.0 -0.001775450634310926 0.0
0.0 -0.0017852744576750562 0.0
0.0 -0.001788100499248416 0.0
0.0 -0.0017861848754162357 0.0
0.0 -0.0017864401989949106 0.0
0.0 -0.001788431187043517 0.0
0.0 -0.0017876721897001444 0.0
0.0 -0.0017863410162346296 0.0
0.0 -0.0017874979308467169 0.0
0.0 -0.001788091783061158 0.0
0.0 -0.0017868533719876962 0.0
0.0 -0.001786977626203182 0.0
0.0 -0.0017879498314651108 0.0
0.0 -0.0017872991064695563 0.0
0.0 -0.0017868611547816472 0.0
0.0 -0.0017876855351280868 0.0
0.0 -0.001787525293508401 0.0
0.0 -0.0017869273243596533 0.0
0.0 -0.0017874844809126335 0.0
0.0 -0.0017875952437726727 0.0
0.0 -0.001787029568480209 0.0
0.0 -0.0017873729064483 0.0
0.0 -0.0017875907466368378 0.0
0.0 -0.0017871111121762519 0.0
0.0 -0.0017873266291001135 0.0
0.0 -0.0017875607164558735 0.0
0.0 -0.0017871620951009186 0.0
0.0 -0.0017873192288858858 0.0
0.0 -0.0017875255347738128 0.0
0.0 -0.001787189156603108 0.0
0.0 -0.0017873333264484073 0.0
0.0 -0.001787490035230646 0.0
0.0 -0.0017872024359405323 0.0
0.0 -0.0017873588347580196 0.0
0.0 -0.0017874526998245916 0.0
0.0 -0.0017872118136310982 0.0
0.0 -0.001787388799220282 0.0
0.0 -0.0017874110028668784 0.0
0.0 -0.001787226119905766 0.0
0.0 -0.0017874161329362137 0.0
0.0 -0.0017873648401945993 0.0
0.0 -0.001787252120998987 0.0
0.0 -0.0017874323034850989 0.0
0.0 -0.0017873189147964534 0.0
0.0 -0.0017872921520431164 0.0
0.0 -0.0017874287265598158 0.0
0.0 -0.0017872833606866914 0.0
0.0 -0.0017873410272146225 0.0
0.0 -0.0017874011374124402 0.0
0.0 -0.0017872708549549552 0.0
0.0 -0.0017873847786642337 0.0
0.0 -0.0017873553542439673 0.0
0.0 -0.0017872892385921704 0.0
0.0 -0.0017874048813221633 0.0
0.0 -0.001787309873772481 0.0
0.0 -0.0017873322700441955 0.0
0.0 -0.001787389549936616 0.0
0.0 -0.0017872893568922205 0.0
0.0 -0.001787376241764658 0.0
0.0 -0.001787346938362067 0.0
0.0 -0.00178730771290636 0.0
0.0 -0.0017873911823838887 0.0
0.0 -0.0017873073496818238 0.0
0.0 -0.0017873512819878271 0.0
0.0 -0.0017873652998260836 0.0
0.0 -0.0017873035632411662 0.0
0.0 -0.001787382080527855 0.0
0.0 -0.0017873225958993388 0.0
0.0 -0.0017873384579808686 0.0
0.0 -0.0017873702649836502 0.0
0.0 -0.0017873069338626352 0.0
0.0 -0.001787374096241946 0.0
0.0 -0.001787330128963001 0.0
0.0 -0.0017873350986202313 0.0
0.0 -0.0017873687637192791 0.0
0.0 -0.0017873112970116785 0.0
0.0 -0.0017873701552173528 0.0
0.0 -0.0017873311046401447 0.0
0.0 -0.001787337743768914 0.0
0.0 -0.001787364021742112 0.0
0.0 -0.0017873154548716185 0.0
0.0 -0.0017873691459995228 0.0
0.0 -0.0017873278813395567 0.0
0.0 -0.001787344394707183 0.0
0.0 -0.0017873564318795548 0.0
0.0 -0.0017873209408659403 0.0
0.0 -0.001787368256948741 0.0
0.0 -0.0017873233224275477 0.0
0.0 -0.00178735337160557 0.0
0.0 -0.0017873457305532421 0.0
0.0 -0.0017873300136305582 0.0
0.0 -0.0017873638438621194 0.0
0.0 -0.0017873214346778106 0.0
0.0 -0.0017873614177434751 0.0
0.0 -0.0017873335125886956 0.0
0.0 -0.0017873432568344659 0.0
0.0 -0.0017873531080045983 0.0
0.0 -0.0017873267970260464 0.0
0.0 -0.0017873630019187153 0.0
0.0 -0.0017873251716873987 0.0
0.0 -0.0017873565911677605 0.0
0.0 -0.0017873377579587773 0.0
0.0 -0.0017873407885203839 0.0
0.0 -0.0017873534728859808 0.0
0.0 -0.0017873281637634944 0.0
0.0 -0.0017873608785400521 0.0
0.0 -0.0017873269747144863 0.0
0.0 -0.001787356069825405 0.0
0.0 -0.001787336560285859 0.0
0.0 -0.0017873436394355044 0.0
0.0 -0.0017873496319661913 0.0
0.0 -0.0017873320452742665 0.0
0.0 -0.0017873580735465913 0.0
0.0 -0.0017873278146562483 0.0
0.0 -0.0017873577700668944 0.0
0.0 -0.0017873323124697965 0.0
0.0 -0.00178734998511917 0.0
0.0 -0.0017873421346800286 0.0
0.0 -0.0017873395400316255 0.0
0.0 -0.0017873518590281853 0.0
0.0 -0.0017873316774981703 0.0
0.0 -0.0017873570670036644 0.0
0.0 -0.0017873295457292609 0.0
0.0 -0.0017873561040954496 0.0
0.0 -0.0017873332953281123 0.0
0.0 -0.0017873501555868575 0.0
0.0 -0.001787340700866398 0.0
0.0 -0.0017873421199381175 0.0
0.0 -0.0017873485753992003 0.0
0.0 -0.0017873351160738373 0.0
0.0 -0.0017873541630702048 0.0
0.0 -0.0017873313232512188 0.0
0.0 -0.0017873559859259453 0.0
0.0 -0.0017873314787539684 0.0
0.0 -0.0017873540129316598 0.0
0.0 -0.001787334998952501 0.0
0.0 -0.0017873493124849595 0.0
0.0 -0.0017873404802141554 0.0
0.0 -0.0017873434709678674 0.0
0.0 -0.0017873462953271228 0.0
0.0 -0.0017873380348500099 0.0
0.0 -0.001787351073809753 0.0
0.0 -0.0017873341322005051 0.0
0.0 -0.0017873539680255965 0.0
0.0 -0.0017873323179810046 0.0
0.0 -0.001787354706256824 0.0
0.0 -0.0017873326068695195 0.0
0.0 -0.0017873534930000514 0.0
0.0 -0.001787334619854316 0.0
0.0 -0.0017873508346269345 0.0
0.0 -0.0017873377693186753 0.0
0.0 -0.0017873473576126852 0.0
0.0 -0.0017873414267433752 0.0
0.0 -0.001787343662346973 0.0
0.0 -0.0017873450429988919 0.0
0.0 -0.0017873402304798944 0.0
0.0 -0.0017873482137502593 0.0
0.0 -0.001787337384784382 0.0
0.0 -0.001787350697389304 0.0
0.0 -0.0017873352897472068 0.0
0.0 -0.0017873523998380562 0.0
0.0 -0.001787333977518497 0.0
0.0 -0.0017873533414144388 0.0
0.0 -0.0017873333850916765 0.0
0.0 -0.0017873536182382815 0.0
0.0 -0.0017873333922135857 0.0
0.0 -0.0017873533665819434 0.0
0.0 -0.0017873338536760393 0.0
0.0 -0.0017873527346137928 0.0
0.0 -0.0017873346232115295 0.0
0.0 -0.0017873518629079506 0.0
0.0 -0.0017873355687469002 0.0
0.0 -0.0017873508731067382 0.0
0.0 -0.0017873365802426801 0.0
0.0 -0.0017873498631085266 0.0
0.0 -0.0017873375719672055 0.0
0.0 -0.0017873489068521424 0.0
0.0 -0.001787338481104215 0.0
0.0 -0.0017873480569073586 0.0
0.0 -0.0017873392643257859 0.0
0.0 -0.0017873473484284906 0.0
0.0 -0.0017873398935722414 0.0
0.0 -0.0017873468034284822 0.0
0.0 -0.0017873403518930413 0.0
0.0 -0.0017873464346916856 0.0
0.0 -0.0017873406298795401 0.0
0.0 -0.0017873462489231512 0.0
0.0 -0.0017873462489231347 0.0
0.0 -0.001787340629879539 0.0
0.0 -0.001787346434691689 0.0
0.0 -0.0017873403518930513 0.0
0.0 -0.0017873468034284713 0.0
0.0 -0.0017873398935722392 0.0
0.0 -0.0017873473484284782 0.0
0.0 -0.0017873392643257908 0.0
0.0 -0.001787348056907339 0.0
0.0 -0.0017873384811042208 0.0
0.0 -0.0017873489068521427 0.0
0.0 -0.0017873375719671914 0.0
0.0 -0.0017873498631085227 0.0
0.0 -0.0017873365802426797 0.0
0.0 -0.0017873508731067356 0.0
0.0 -0.0017873355687468978 0.0
0.0 -0.0017873518629079397 0.0
0.0 -0.001787334623211523 0.0
0.0 -0.0017873527346138024 0.0
0.0 -0.0017873338536760453 0.0
0.0 -0.0017873533665819605 0.0
0.0 -0.0017873333922135933 0.0
0.0 -0.0017873536182382785 0.0
0.0 -0.0017873333850916833 0.0
0.0 -0.0017873533414144388 0.0
0.0 -0.0017873339775184946 0.0
0.0 -0.0017873523998380584 0.0
0.0 -0.0017873352897472042 0.0
0.0 -0.0017873506973892824 0.0
0.0 -0.001787337384784383 0.0
0.0 -0.0017873482137502866 0.0
0.0 -0.0017873402304798773 0.0
0.0 -0.0017873450429989033 0.0
0.0 -0.0017873436623469768 0.0
0.0 -0.0017873414267433625 0.0
0.0 -0.0017873473576126907 0.0
0.0 -0.0017873377693186907 0.0
0.0 -0.0017873508346269483 0.0
0.0 -0.0017873346198543226 0.0
0.0 -0.0017873534930000334 0.0
0.0 -0.0017873326068695197 0.0
0.0 -0.0017873547062568214 0.0
0.0 -0.001787332317981013 0.0
0.0 -0.0017873539680255887 0.0
0.0 -0.0017873341322005218 0.0
0.0 -0.0017873510738097406 0.0
0.0 -0.0017873380348500118 0.0
0.0 -0.0017873462953271152 0.0
0.0 -0.0017873434709678618 0.0
0.0 -0.0017873404802141522 0.0
0.0 -0.00178734931248497 0.0
0.0 -0.0017873349989525017 0.0
0.0 -0.0017873540129316595 0.0
0.0 -0.0017873314787539753 0.0
0.0 -0.0017873559859259546 0.0
0.0 -0.0017873313232512067 0.0
0.0 -0.0017873541630702011 0.0
0.0 -0.0017873351160738549 0.0
0.0 -0.0017873485753991984 0.0
0.0 -0.0017873421199381123 0.0
0.0 -0.001787340700866404 0.0
0.0 -0.0017873501555868503 0.0
0.0 -0.001787333295328122 0.0
0.0 -0.0017873561040954316 0.0
0.0 -0.0017873295457292637 0.0
0.0 -0.0017873570670036668 0.0
0.0 -0.0017873316774981683 0.0
0.0 -0.0017873518590281962 0.0
0.0 -0.0017873395400316424 0.0
0.0 -0.001787342134680026 0.0
0.0 -0.0017873499851191754 0.0
0.0 -0.0017873323124697922 0.0
0.0 -0.0017873577700668953 0.0
0.0 -0.0017873278146562492 0.0
0.0 -0.001787358073546593 0.0
0.0 -0.001787332045274268 0.0
0.0 -0.001787349631966206 0.0
0.0 -0.0017873436394355152 0.0
0.0 -0.0017873365602858785 0.0
0.0 -0.001787356069825407 0.0
0.0 -0.0017873269747144837 0.0
0.0 -0.0017873608785400547 0.0
0.0 -0.0017873281637634877 0.0
0.0 -0.001787353472885981 0.0
0.0 -0.0017873407885203826 0.0
0.0 -0.0017873377579587678 0.0
0.0 -0.0017873565911677755 0.0
0.0 -0.001787325171687398 0.0
0.0 -0.0017873630019187023 0.0
0.0 -0.0017873267970260386 0.0
0.0 -0.0017873531080046057 0.0
0.0 -0.0017873432568344925 0.0
0.0 -0.0017873335125887016 0.0
0.0 -0.0017873614177434743 0.0
0.0 -0.0017873214346777978 0.0
0.0 -0.0017873638438621212 0.0
0.0 -0.001787330013630588 0.0
0.0 -0.0017873457305532436 0.0
0.0 -0.0017873533716055733 0.0
0.0 -0.001787323322427537 0.0
0.0 -0.0017873682569487434 0.0
0.0 -0.0017873209408659546 0.0
0.0 -0.0017873564318795635 0.0
0.0 -0.0017873443947072033 0.0
0.0 -0.0017873278813395595 0.0
0.0 -0.001787369145999546 0.0
0.0 -0.0017873154548716337 0.0
0.0 -0.0017873640217420954 0.0
0.0 -0.0017873377437689173 0.0
0.0 -0.0017873311046401232 0.0
0.0 -0.0017873701552173723 0.0
0.0 -0.001787311297011659 0.0
0.0 -0.0017873687637192813 0.0
0.0 -0.001787335098620241 0.0
0.0 -0.001787330128962995 0.0
0.0 -0.0017873740962419534 0.0
0.0 -0.001787306933862644 0.0
0.0 -0.0017873702649836279 0.0
0.0 -0.001787338457980879 0.0
0.0 -0.0017873225958993412 0.0
0.0 -0.0017873820805278564 0.0
0.0 -0.0017873035632411831 0.0
0.0 -0.0017873652998260802 0.0
0.0 -0.0017873512819878456 0.0
0.0 -0.0017873073496818142 0.0
0.0 -0.0017873911823838929 0.0
0.0 -0.0017873077129063482 0.0
0.0 -0.0017873469383620712 0.0
0.0 -0.0017873762417646734 0.0
0.0 -0.001787289356892214 0.0
0.0 -0.0017873895499366105 0.0
0.0 -0.001787332270044206 0.0
0.0 -0.0017873098737724664 0.0
0.0 -0.001787404881322162 0.0
0.0 -0.0017872892385921767 0.0
0.0 -0.0017873553542439489 0.0
0.0 -0.0017873847786642446 0.0
0.0 -0.0017872708549549416 0.0
0.0 -0.0017874011374124001 0.0
0.0 -0.0017873410272146366 0.0
0.0 -0.0017872833606866893 0.0
0.0 -0.001787428726559817 0.0
0.0 -0.0017872921520431246 0.0
0.0 -0.0017873189147964202 0.0
0.0 -0.0017874323034851075 0.0
0.0 -0.0017872521209989878 0.0
0.0 -0.0017873648401945834 0.0
0.0 -0.001787416132936221 0.0
0.0 -0.0017872261199057711 0.0
0.0 -0.0017874110028668643 0.0
0.0 -0.001787388799220311 0.0
0.0 -0.0017872118136310997 0.0
0.0 -0.0017874526998245726 0.0
0.0 -0.0017873588347580168 0.0
0.0 -0.0017872024359405065 0.0
0.0 -0.001787490035230641 0.0
0.0 -0.0017873333264484315 0.0
0.0 -0.0017871891566030988 0.0
0.0 -0.0017875255347738106 0.0
0.0 -0.0017873192288859194 0.0
0.0 -0.001787162095100918 0.0
0.0 -0.0017875607164558932 0.0
0.0 -0.0017873266291001423 0.0
0.0 -0.0017871111121762603 0.0
0.0 -0.0017875907466368413 0.0
0.0 -0.0017873729064483226 0.0
0.0 -0.0017870295684802025 0.0
0.0 -0.0017875952437726422 0.0
0.0 -0.001787484480912655 0.0
0.0 -0.0017869273243596453 0.0
0.0 -0.0017875252935083837 0.0
0.0 -0.0017876855351280968 0.0
0.0 -0.001786861154781669 0.0
0.0 -0.0017872991064695357 0.0
0.0 -0.0017879498314651214 0.0
0.0 -0.001786977626203178 0.0
0.0 -0.00178685337198768 0.0
0.0 -0.0017880917830611573 0.0
0.0 -0.001787497930846737 0.0
0.0 -0.00178634101623462 0.0
0.0 -0.0017876721897001069 0.0
0.0 -0.001788431187043536 0.0
0.0 -0.0017864401989949217 0.0
0.0 -0.0017861848754162088 0.0
0.0 -0.0017881004992484086 0.0
0.0 -0.001785274457675151 0.0
0.0 -0.0017754506343110816 0.0
0.0 -0.0017585924676494819 0.0
0.0 -0.0017194149725074835 0.0
0.0 -0.0016299179085639747 0.0
0.0 -0.0014701697839880443 0.0
0.0 -0.0012331891395754384 0.0
0.0 -0.0009204054629379378 0.0
0.0 -0.0005600426412069627 0.0
0.0 -0.00022752231829003945 0.0
0.0 -1.3057438051453574e-05 0.0
0.0 5.2005918968378195e-05 0.0
0.0 2.5491062063407497e-05 0.0
0.0 -3.692224033599667e-06 0.0
0.0 -3.6922240336077853e-06 0.0
0.0 2.549106206334647e-05 0.0
0.0 5.2005918968372604e-05 0.0
0.0 -1.3057438051075955e-05 0.0
0.0 -0.00022752231828901658 0.0
0.0 -0.0005600426412053507 0.0
0.0 -0.0009204054629360473 0.0
0.0 -0.0012331891395735847 0.0
0.0 -0.0014701697839864607 0.0
0.0 -0.0016299179085628567 0.0
0.0 -0.0017194149725068874 0.0
0.0 -0.0017585924676492145 0.0
0.0 -0.0017754506343109406 0.0
0.0 -0.0017852744576750648 0.0
0.0 -0.0017881004992484134 0.0
0.0 -0.0017861848754162296 0.0
0.0 -0.0017864401989948952 0.0
0.0 -0.0017884311870435237 0.0
0.0 -0.0017876721897001331 0.0
0.0 -0.0017863410162346255 0.0
0.0 -0.0017874979308467199 0.0
0.0 -0.0017880917830611666 0.0
0.0 -0.0017868533719876969 0.0
0.0 -0.0017869776262031682 0.0
0.0 -0.001787949831465126 0.0
0.0 -0.001787299106469556 0.0
0.0 -0.0017868611547816615 0.0
0.0 -0.0017876855351280792 0.0
0.0 -0.0017875252935083978 0.0
0.0 -0.0017869273243596477 0.0
0.0 -0.0017874844809126326 0.0
0.0 -0.001787595243772669 0.0
0.0 -0.0017870295684802192 0.0
0.0 -0.0017873729064482977 0.0
0.0 -0.0017875907466368575 0.0
0.0 -0.001787111112176265 0.0
0.0 -0.0017873266291001143 0.0
0.0 -0.0017875607164558897 0.0
0.0 -0.001787162095100932 0.0
0.0 -0.001787319228885908 0.0
0.0 -0.0017875255347738236 0.0
0.0 -0.001787189156603115 0.0
0.0 -0.0017873333264484198 0.0
0.0 -0.0017874900352306544 0.0
0.0 -0.0017872024359405234 0.0
0.0 -0.0017873588347579992 0.0
0.0 -0.001787452699824582 0.0
0.0 -0.0017872118136311066 0.0
0.0 -0.0017873887992202883 0.0
0.0 -0.0017874110028668793 0.0
0.0 -0.0017872261199057722 0.0
0.0 -0.001787416132936211 0.0
0.0 -0.0017873648401946077 0.0
0.0 -0.0017872521209989888 0.0
0.0 -0.0017874323034851058 0.0
0.0 -0.0017873189147964497 0.0
0.0 -0.0017872921520431214 0.0
0.0 -0.0017874287265598242 0.0
0.0 -0.0017872833606866951 0.0
0.0 -0.0017873410272146277 0.0
0.0 -0.0017874011374124248 0.0
0.0 -0.001787270854954936 0.0
0.0 -0.0017873847786642368 0.0
0.0 -0.0017873553542439777 0.0
0.0 -0.0017872892385921765 0.0
0.0 -0.001787404881322158 0.0
0.0 -0.0017873098737724849 0.0
0.0 -0.0017873322700441901 0.0
0.0 -0.0017873895499366098 0.0
0.0 -0.001787289356892213 0.0
0.0 -0.0017873762417646524 0.0
0.0 -0.0017873469383620736 0.0
0.0 -0.0017873077129063326 0.0
0.0 -0.0017873911823838838 0.0
0.0 -0.0017873073496818064 0.0
0.0 -0.001787351281987817 0.0
0.0 -0.00178736529982609 0.0
0.0 -0.0017873035632411758 0.0
0.0 -0.001787382080527858 0.0
0.0 -0.0017873225958993445 0.0
0.0 -0.0017873384579808597 0.0
0.0 -0.0017873702649836374 0.0
0.0 -0.0017873069338626476 0.0
0.0 -0.0017873740962419378 0.0
0.0 -0.0017873301289630106 0.0
0.0 -0.0017873350986202347 0.0
0.0 -0.0017873687637192804 0.0
0.0 -0.0017873112970116707 0.0
0.0 -0.0017873701552173762 0.0
0.0 -0.0017873311046401389 0.0
0.0 -0.0017873377437689112 0.0
0.0 -0.0017873640217420945 0.0
0.0 -0.0017873154548716317 0.0
0.0 -0.0017873691459995339 0.0
0.0 -0.0017873278813395534 0.0
0.0 -0.0017873443947071823 0.0
0.0 -0.001787356431879555 0.0
0.0 -0.0017873209408659427 0.0
0.0 -0.001787368256948735 0.0
0.0 -0.001787323322427536 0.0
0.0 -0.001787353371605563 0.0
0.0 -0.001787345730553244 0.0
0.0 -0.0017873300136305823 0.0
0.0 -0.001787363843862124 0.0
0.0 -0.0017873214346777997 0.0
0.0 -0.0017873614177434719 0.0
0.0 -0.0017873335125886977 0.0
0.0 -0.0017873432568344708 0.0
0.0 -0.0017873531080046057 0.0
0.0 -0.0017873267970260382 0.0
0.0 -0.0017873630019187112 0.0
0.0 -0.0017873251716874056 0.0
0.0 -0.001787356591167771 0.0
0.0 -0.0017873377579587654 0.0
0.0 -0.0017873407885203784 0.0
0.0 -0.0017873534728859853 0.0
0.0 -0.0017873281637635005 0.0
0.0 -0.0017873608785400547 0.0
0.0 -0.0017873269747144863 0.0
0.0 -0.001787356069825412 0.0
0.0 -0.0017873365602858685 0.0
0.0 -0.0017873436394355098 0.0
0.0 -0.001787349631966207 0.0
0.0 -0.0017873320452742687 0.0
0.0 -0.0017873580735466004 0.0
0.0 -0.0017873278146562498 0.0
0.0 -0.0017873577700668925 0.0
0.0 -0.0017873323124697974 0.0
0.0 -0.001787349985119168 0.0
0.0 -0.0017873421346800286 0.0
0.0 -0.0017873395400316433 0.0
0.0 -0.0017873518590281834 0.0
0.0 -0.0017873316774981627 0.0
0.0 -0.00178735706700367 0.0
0.0 -0.0017873295457292594 0.0
0.0 -0.0017873561040954366 0.0
0.0 -0.0017873332953281277 0.0
0.0 -0.0017873501555868546 0.0
0.0 -0.0017873407008663993 0.0
0.0 -0.0017873421199381119 0.0
0.0 -0.001787348575399195 0.0
0.0 -0.0017873351160738536 0.0
0.0 -0.001787354163070207 0.0
0.0 -0.0017873313232512145 0.0
0.0 -0.0017873559859259574 0.0
0.0 -0.0017873314787539762 0.0
0.0 -0.001787354012931654 0.0
0.0 -0.0017873349989525095 0.0
0.0 -0.0017873493124849732 0.0
0.0 -0.0017873404802141502 0.0
0.0 -0.0017873434709678665 0.0
0.0 -0.0017873462953271165 0.0
0.0 -0.001787338034850006 0.0
0.0 -0.0017873510738097515 0.0
0.0 -0.001787334132200525 0.0
0.0 -0.0017873539680255842 0.0
0.0 -0.0017873323179810076 0.0
0.0 -0.001787354706256815 0.0
0.0 -0.0017873326068695227 0.0
0.0 -0.0017873534930000323 0.0
0.0 -0.0017873346198543204 0.0
0.0 -0.0017873508346269347 0.0
0.0 -0.0017873377693186808 0.0
0.0 -0.0017873473576126844 0.0
0.0 -0.0017873414267433698 0.0
0.0 -0.00178734366234697 0.0
0.0 -0.001787345042998909 0.0
0.0 -0.001787340230479884 0.0
0.0 -0.001787348213750274 0.0
0.0 -0.0017873373847843745 0.0
0.0 -0.0017873506973892863 0.0
0.0 -0.0017873352897472066 0.0
0.0 -0.0017873523998380631 0.0
0.0 -0.001787333977518491 0.0
0.0 -0.0017873533414144338 0.0
0.0 -0.001787333385091677 0.0
0.0 -0.0017873536182382754 0.0
0.0 -0.0017873333922135927 0.0
0.0 -0.0017873533665819516 0.0
0.0 -0.0017873338536760332 0.0
0.0 -0.0017873527346137963 0.0
0.0 -0.0017873346232115295 0.0
0.0 -0.001787351862907947 0.0
0.0 -0.0017873355687469108 0.0
0.0 -0.0017873508731067324 0.0
0.0 -0.0017873365802426842 0.0
0.0 -0.001787349863108534 0.0
0.0 -0.0017873375719671988 0.0
0.0 -0.001787348906852143 0.0
0.0 -0.0017873384811042258 0.0
0.0 -0.0017873480569073354 0.0
0.0 -0.001787339264325796 0.0
0.0 -0.0017873473484284765 0.0
0.0 -0.0017873398935722398 0.0
0.0 -0.0017873468034284878 0.0
0.0 -0.0017873403518930506 0.0
0.0 -0.0017873464346916973 0.0
0.0 -0.0017873406298795486 0.0
0.0 -0.0017873462489231369 0.0
0.0 -0.001787346248923148 0.0
0.0 -0.001787340629879552 0.0
0.0 -0.0017873464346916897 0.0
0.0 -0.0017873403518930445 0.0
0.0 -0.0017873468034284856 0.0
0.0 -0.0017873398935722414 0.0
0.0 -0.0017873473484284804 0.0
0.0 -0.001787339264325778 0.0
0.0 -0.001787348056907348 0.0
0.0 -0.001787338481104223 0.0
0.0 -0.0017873489068521435 0.0
0.0 -0.0017873375719671995 0.0
0.0 -0.0017873498631085201 0.0
0.0 -0.001787336580242679 0.0
0.0 -0.001787350873106738 0.0
0.0 -0.001787335568746901 0.0
0.0 -0.0017873518629079282 0.0
0.0 -0.0017873346232115308 0.0
0.0 -0.001787352734613803 0.0
0.0 -0.0017873338536760438 0.0
0.0 -0.0017873533665819445 0.0
0.0 -0.0017873333922135842 0.0
0.0 -0.0017873536182382815 0.0
0.0 -0.0017873333850916759 0.0
0.0 -0.001787353341414436 0.0
0.0 -0.0017873339775184756 0.0
0.0 -0.0017873523998380614 0.0
0.0 -0.001787335289747211 0.0
0.0 -0.0017873506973893067 0.0
0.0 -0.0017873373847843818 0.0
0.0 -0.0017873482137502705 0.0
0.0 -0.001787340230479907 0.0
0.0 -0.0017873450429989 0.0
0.0 -0.0017873436623469673 0.0
0.0 -0.0017873414267433726 0.0
0.0 -0.001787347357612694 0.0
0.0 -0.0017873377693186834 0.0
0.0 -0.0017873508346269286 0.0
0.0 -0.001787334619854314 0.0
0.0 -0.001787353493000044 0.0
0.0 -0.001787332606869519 0.0
0.0 -0.0017873547062568225 0.0
0.0 -0.0017873323179810085 0.0
0.0 -0.001787353968025592 0.0
0.0 -0.001787334132200514 0.0