# vtk DataFile Version 2.0
data_247
ASCII
DATASET UNSTRUCTURED_GRID
POINTS 804 float
0.0 0.0 0.0
0.1 0.0 0.0
0.1 20.0 0.0
0.0 20.0 0.0
0.0 0.0 -0.1
0.1 0.0 -0.1
0.1 20.0 -0.1
0.0 20.0 -0.1
0.1 0.09999999999992462 0.0
0.1 0.1999999999998517 0.0
0.1 0.2999999999997818 0.0
0.1 0.399999999999712 0.0
0.1 0.4999999999996377 0.0
0.1 0.5999999999995541 0.0
0.1 0.6999999999994495 0.0
0.1 0.7999999999993355 0.0
0.1 0.8999999999992101 0.0
0.1 0.999999999999102 0.0
0.1 1.099999999999006 0.0
0.1 1.199999999998936 0.0
0.1 1.299999999998867 0.0
0.1 1.399999999998797 0.0
0.1 1.499999999998727 0.0
0.1 1.599999999998657 0.0
0.1 1.699999999998587 0.0
0.1 1.799999999998517 0.0
0.1 1.899999999998447 0.0
0.1 1.999999999998378 0.0
0.1 2.099999999998308 0.0
0.1 2.199999999998238 0.0
0.1 2.299999999998168 0.0
0.1 2.399999999998067 0.0
0.1 2.499999999997942 0.0
0.1 2.599999999997706 0.0
0.1 2.699999999997444 0.0
0.1 2.799999999997153 0.0
0.1 2.899999999996861 0.0
0.1 2.999999999996569 0.0
0.1 3.099999999996277 0.0
0.1 3.199999999995984 0.0
0.1 3.299999999995693 0.0
0.1 3.399999999995401 0.0
0.1 3.499999999995108 0.0
0.1 3.599999999994816 0.0
0.1 3.699999999994525 0.0
0.1 3.799999999994232 0.0
0.1 3.89999999999394 0.0
0.1 3.999999999993648 0.0
0.1 4.099999999993356 0.0
0.1 4.199999999993064 0.0
0.1 4.299999999992772 0.0
0.1 4.399999999992479 0.0
0.1 4.499999999992188 0.0
0.1 4.599999999991895 0.0
0.1 4.699999999991603 0.0
0.1 4.799999999991311 0.0
0.1 4.899999999991019 0.0
0.1 4.999999999990727 0.0
0.1 5.099999999990436 0.0
0.1 5.199999999990144 0.0
0.1 5.299999999989851 0.0
0.1 5.399999999989559 0.0
0.1 5.499999999989267 0.0
0.1 5.599999999988975 0.0
0.1 5.699999999988683 0.0
0.1 5.799999999988391 0.0
0.1 5.899999999988099 0.0
0.1 5.999999999987806 0.0
0.1 6.099999999987515 0.0
0.1 6.199999999987222 0.0
0.1 6.299999999986929 0.0
0.1 6.399999999986638 0.0
0.1 6.499999999986345 0.0
0.1 6.599999999986054 0.0
0.1 6.699999999985762 0.0
0.1 6.79999999998547 0.0
0.1 6.899999999985177 0.0
0.1 6.999999999984885 0.0
0.1 7.099999999984593 0.0
0.1 7.199999999984302 0.0
0.1 7.299999999984009 0.0
0.1 7.399999999983717 0.0
0.1 7.499999999983426 0.0
0.1 7.599999999983132 0.0
0.1 7.699999999982841 0.0
0.1 7.799999999982549 0.0
0.1 7.899999999982256 0.0
0.1 7.999999999982034 0.0
0.1 8.099999999981964 0.0
0.1 8.199999999982062 0.0
0.1 8.299999999982214 0.0
0.1 8.399999999982366 0.0
0.1 8.499999999982517 0.0
0.1 8.59999999998267 0.0
0.1 8.699999999982822 0.0
0.1 8.799999999982973 0.0
0.1 8.899999999983125 0.0
0.1 8.999999999983277 0.0
0.1 9.09999999998343 0.0
0.1 9.19999999998358 0.0
0.1 9.299999999983733 0.0
0.1 9.399999999983885 0.0
0.1 9.499999999984038 0.0
0.1 9.599999999984188 0.0
0.1 9.69999999998434 0.0
0.1 9.799999999984493 0.0
0.1 9.899999999984646 0.0
0.1 9.999999999984798 0.0
0.1 10.09999999998495 0.0
0.1 10.1999999999851 0.0
0.1 10.29999999998525 0.0
0.1 10.39999999998541 0.0
0.1 10.49999999998556 0.0
0.1 10.59999999998571 0.0
0.1 10.69999999998586 0.0
0.1 10.79999999998601 0.0
0.1 10.89999999998616 0.0
0.1 10.99999999998632 0.0
0.1 11.09999999998647 0.0
0.1 11.19999999998662 0.0
0.1 11.29999999998677 0.0
0.1 11.39999999998693 0.0
0.1 11.49999999998708 0.0
0.1 11.59999999998723 0.0
0.1 11.69999999998738 0.0
0.1 11.79999999998754 0.0
0.1 11.89999999998769 0.0
0.1 11.99999999998784 0.0
0.1 12.09999999998799 0.0
0.1 12.19999999998814 0.0
0.1 12.2999999999883 0.0
0.1 12.39999999998845 0.0
0.1 12.4999999999886 0.0
0.1 12.59999999998875 0.0
0.1 12.6999999999889 0.0
0.1 12.79999999998905 0.0
0.1 12.89999999998921 0.0
0.1 12.99999999998936 0.0
0.1 13.09999999998951 0.0
0.1 13.19999999998966 0.0
0.1 13.29999999998982 0.0
0.1 13.39999999998997 0.0
0.1 13.49999999999012 0.0
0.1 13.59999999999027 0.0
0.1 13.69999999999042 0.0
0.1 13.79999999999057 0.0
0.1 13.89999999999073 0.0
0.1 13.99999999999088 0.0
0.1 14.09999999999103 0.0
0.1 14.19999999999118 0.0
0.1 14.29999999999134 0.0
0.1 14.39999999999149 0.0
0.1 14.49999999999164 0.0
0.1 14.59999999999179 0.0
0.1 14.69999999999194 0.0
0.1 14.7999999999921 0.0
0.1 14.89999999999225 0.0
0.1 14.9999999999924 0.0
0.1 15.09999999999255 0.0
0.1 15.1999999999927 0.0
0.1 15.29999999999285 0.0
0.1 15.39999999999301 0.0
0.1 15.49999999999316 0.0
0.1 15.59999999999331 0.0
0.1 15.69999999999346 0.0
0.1 15.79999999999362 0.0
0.1 15.89999999999377 0.0
0.1 15.99999999999392 0.0
0.1 16.09999999999407 0.0
0.1 16.19999999999422 0.0
0.1 16.29999999999437 0.0
0.1 16.39999999999453 0.0
0.1 16.49999999999468 0.0
0.1 16.59999999999483 0.0
0.1 16.69999999999498 0.0
0.1 16.79999999999514 0.0
0.1 16.89999999999528 0.0
0.1 16.99999999999544 0.0
0.1 17.09999999999559 0.0
0.1 17.19999999999574 0.0
0.1 17.29999999999589 0.0
0.1 17.39999999999605 0.0
0.1 17.4999999999962 0.0
0.1 17.59999999999635 0.0
0.1 17.6999999999965 0.0
0.1 17.79999999999665 0.0
0.1 17.89999999999681 0.0
0.1 17.99999999999696 0.0
0.1 18.09999999999711 0.0
0.1 18.19999999999726 0.0
0.1 18.29999999999742 0.0
0.1 18.39999999999757 0.0
0.1 18.49999999999772 0.0
0.1 18.59999999999787 0.0
0.1 18.69999999999802 0.0
0.1 18.79999999999818 0.0
0.1 18.89999999999833 0.0
0.1 18.99999999999848 0.0
0.1 19.09999999999863 0.0
0.1 19.19999999999878 0.0
0.1 19.29999999999894 0.0
0.1 19.39999999999909 0.0
0.1 19.49999999999924 0.0
0.1 19.59999999999939 0.0
0.1 19.69999999999955 0.0
0.1 19.7999999999997 0.0
0.1 19.89999999999985 0.0
0.0 19.9 0.0
0.0 19.8 0.0
0.0 19.7 0.0
0.0 19.6 0.0
0.0 19.5 0.0
0.0 19.4 0.0
0.0 19.3 0.0
0.0 19.2 0.0
0.0 19.1 0.0
0.0 19.0 0.0
0.0 18.9 0.0
0.0 18.8 0.0
0.0 18.7 0.0
0.0 18.6 0.0
0.0 18.5 0.0
0.0 18.4 0.0
0.0 18.3 0.0
0.0 18.2 0.0
0.0 18.1 0.0
0.0 18.0 0.0
0.0 17.9 0.0
0.0 17.8 0.0
0.0 17.7 0.0
0.0 17.6 0.0
0.0 17.5 0.0
0.0 17.4 0.0
0.0 17.3 0.0
0.0 17.2 0.0
0.0 17.09999999999999 0.0
0.0 17.0 0.0
0.0 16.9 0.0
0.0 16.8 0.0
0.0 16.7 0.0
0.0 16.59999999999999 0.0
0.0 16.49999999999999 0.0
0.0 16.4 0.0
0.0 16.29999999999999 0.0
0.0 16.2 0.0
0.0 16.09999999999999 0.0
0.0 15.99999999999999 0.0
0.0 15.89999999999999 0.0
0.0 15.79999999999999 0.0
0.0 15.69999999999999 0.0
0.0 15.59999999999999 0.0
0.0 15.49999999999999 0.0
0.0 15.39999999999999 0.0
0.0 15.29999999999999 0.0
0.0 15.19999999999999 0.0
0.0 15.09999999999999 0.0
0.0 14.99999999999999 0.0
0.0 14.89999999999999 0.0
0.0 14.79999999999999 0.0
0.0 14.69999999999999 0.0
0.0 14.59999999999999 0.0
0.0 14.49999999999999 0.0
0.0 14.39999999999999 0.0
0.0 14.29999999999999 0.0
0.0 14.19999999999999 0.0
0.0 14.09999999999999 0.0
0.0 13.99999999999999 0.0
0.0 13.89999999999999 0.0
0.0 13.79999999999999 0.0
0.0 13.69999999999999 0.0
0.0 13.59999999999999 0.0
0.0 13.49999999999999 0.0
0.0 13.39999999999999 0.0
0.0 13.29999999999999 0.0
0.0 13.19999999999999 0.0
0.0 13.09999999999999 0.0
0.0 12.99999999999999 0.0
0.0 12.89999999999999 0.0
0.0 12.79999999999999 0.0
0.0 12.69999999999999 0.0
0.0 12.59999999999999 0.0
0.0 12.49999999999999 0.0
0.0 12.39999999999999 0.0
0.0 12.29999999999999 0.0
0.0 12.19999999999999 0.0
0.0 12.09999999999999 0.0
0.0 11.99999999999999 0.0
0.0 11.89999999999999 0.0
0.0 11.79999999999999 0.0
0.0 11.69999999999999 0.0
0.0 11.59999999999999 0.0
0.0 11.49999999999999 0.0
0.0 11.39999999999999 0.0
0.0 11.29999999999999 0.0
0.0 11.19999999999999 0.0
0.0 11.09999999999999 0.0
0.0 10.99999999999999 0.0
0.0 10.89999999999999 0.0
0.0 10.79999999999999 0.0
0.0 10.69999999999999 0.0
0.0 10.59999999999999 0.0
0.0 10.49999999999999 0.0
0.0 10.39999999999999 0.0
0.0 10.29999999999999 0.0
0.0 10.19999999999999 0.0
0.0 10.09999999999999 0.0
0.0 9.999999999999993 0.0
0.0 9.899999999999993 0.0
0.0 9.799999999999994 0.0
0.0 9.699999999999992 0.0
0.0 9.599999999999993 0.0
0.0 9.499999999999993 0.0
0.0 9.399999999999993 0.0
0.0 9.299999999999995 0.0
0.0 9.199999999999996 0.0
0.0 9.099999999999994 0.0
0.0 8.999999999999995 0.0
0.0 8.899999999999995 0.0
0.0 8.799999999999994 0.0
0.0 8.699999999999994 0.0
0.0 8.599999999999994 0.0
0.0 8.499999999999995 0.0
0.0 8.399999999999995 0.0
0.0 8.299999999999994 0.0
0.0 8.199999999999994 0.0
0.0 8.099999999999994 0.0
0.0 7.999999999999993 0.0
0.0 7.899999999999995 0.0
0.0 7.799999999999995 0.0
0.0 7.699999999999996 0.0
0.0 7.599999999999996 0.0
0.0 7.499999999999996 0.0
0.0 7.399999999999995 0.0
0.0 7.299999999999995 0.0
0.0 7.199999999999996 0.0
0.0 7.099999999999994 0.0
0.0 6.999999999999995 0.0
0.0 6.899999999999995 0.0
0.0 6.799999999999995 0.0
0.0 6.699999999999996 0.0
0.0 6.599999999999994 0.0
0.0 6.499999999999995 0.0
0.0 6.399999999999997 0.0
0.0 6.299999999999997 0.0
0.0 6.199999999999996 0.0
0.0 6.099999999999996 0.0
0.0 5.999999999999996 0.0
0.0 5.899999999999997 0.0
0.0 5.799999999999997 0.0
0.0 5.699999999999996 0.0
0.0 5.599999999999996 0.0
0.0 5.499999999999996 0.0
0.0 5.399999999999995 0.0
0.0 5.299999999999995 0.0
0.0 5.199999999999996 0.0
0.0 5.099999999999996 0.0
0.0 4.999999999999998 0.0
0.0 4.899999999999999 0.0
0.0 4.799999999999997 0.0
0.0 4.699999999999998 0.0
0.0 4.599999999999998 0.0
0.0 4.499999999999996 0.0
0.0 4.399999999999997 0.0
0.0 4.299999999999997 0.0
0.0 4.199999999999998 0.0
0.0 4.099999999999998 0.0
0.0 3.999999999999996 0.0
0.0 3.899999999999999 0.0
0.0 3.799999999999997 0.0
0.0 3.699999999999996 0.0
0.0 3.599999999999998 0.0
0.0 3.5 0.0
0.0 3.399999999999999 0.0
0.0 3.299999999999997 0.0
0.0 3.199999999999999 0.0
0.0 3.099999999999998 0.0
0.0 3.0 0.0
0.0 2.899999999999999 0.0
0.0 2.799999999999997 0.0
0.0 2.699999999999999 0.0
0.0 2.599999999999998 0.0
0.0 2.499999999999996 0.0
0.0 2.399999999999999 0.0
0.0 2.299999999999997 0.0
0.0 2.199999999999999 0.0
0.0 2.100000000000001 0.0
0.0 2.0 0.0
0.0 1.899999999999999 0.0
0.0 1.800000000000001 0.0
0.0 1.699999999999999 0.0
0.0 1.599999999999998 0.0
0.0 1.5 0.0
0.0 1.399999999999999 0.0
0.0 1.299999999999997 0.0
0.0 1.199999999999999 0.0
0.0 1.099999999999998 0.0
0.0 1.0 0.0
0.0 0.8999999999999986 0.0
0.0 0.8000000000000007 0.0
0.0 0.6999999999999993 0.0
0.0 0.6000000000000014 0.0
0.0 0.5 0.0
0.0 0.3999999999999986 0.0
0.0 0.3000000000000007 0.0
0.0 0.1999999999999993 0.0
[...]
POINT_DATA 804
VECTORS displacement double
0.0 0.0 0.0
0.0 0.0 0.0
0.0 -0.0017875179054918705 0.0
0.0 -0.0017875179054918674 0.0
0.0 0.0 0.0
0.0 0.0 0.0
0.0 -0.0017875179054918687 0.0
0.0 -0.0017875179054918755 0.0
0.0 -1.389428759235426e-13 0.0
0.0 -1.903568545417124e-12 0.0
0.0 -7.283497619238679e-12 0.0
0.0 6.086789903763653e-12 0.0
0.0 2.173438894768811e-10 0.0
0.0 1.2313104170471104e-09 0.0
0.0 3.061115870488651e-09 0.0
0.0 -6.78236547220427e-09 0.0
0.0 -1.1528694221488422e-07 0.0
0.0 -7.118867355002317e-07 0.0
0.0 -3.1360353335213215e-06 0.0
0.0 -1.1122847795927456e-05 0.0
0.0 -3.326083334790762e-05 0.0
0.0 -8.576069257523501e-05 0.0
0.0 -0.00019298863713889796 0.0
0.0 -0.0003815301677740255 0.0
0.0 -0.000664921827820729 0.0
0.0 -0.0010234037114610706 0.0
0.0 -0.0013937247923854663 0.0
0.0 -0.0016872056053210964 0.0
0.0 -0.0018375466000258788 0.0
0.0 -0.001848059539270162 0.0
0.0 -0.0017925901131522674 0.0
0.0 -0.001757008256549364 0.0
0.0 -0.0017707884090376151 0.0
0.0 -0.0017990652735827622 0.0
0.0 -0.0018016710385011308 0.0
0.0 -0.0017839536267155265 0.0
0.0 -0.0017774188552968015 0.0
0.0 -0.0017883720755354129 0.0
0.0 -0.0017946186796605585 0.0
0.0 -0.0017872486450821914 0.0
0.0 -0.0017824063989721917 0.0
0.0 -0.0017880119197686692 0.0
0.0 -0.001791277148429203 0.0
0.0 -0.001786581160432618 0.0
0.0 -0.0017848433386082644 0.0
0.0 -0.0017888982321318091 0.0
0.0 -0.0017892198566357709 0.0
0.0 -0.0017858854964138882 0.0
0.0 -0.0017867741041266453 0.0
0.0 -0.0017891368768273707 0.0
0.0 -0.0017874118906976188 0.0
0.0 -0.001786263321388175 0.0
0.0 -0.0017882609304138506 0.0
0.0 -0.0017881544477088202 0.0
0.0 -0.0017865430844615864 0.0
0.0 -0.0017875977692000642 0.0
0.0 -0.001788294396186844 0.0
0.0 -0.0017869373869695481 0.0
0.0 -0.001787282745149531 0.0
0.0 -0.0017881959565250098 0.0
0.0 -0.0017872136376846143 0.0
0.0 -0.001787189650832524 0.0
0.0 -0.0017880601850119525 0.0
0.0 -0.001787357092120941 0.0
0.0 -0.001787200346517687 0.0
0.0 -0.0017879540142346953 0.0
0.0 -0.001787408332218298 0.0
0.0 -0.0017872524357926208 0.0
0.0 -0.0017878829080880088 0.0
0.0 -0.0017874055215127075 0.0
0.0 -0.0017873223972877394 0.0
0.0 -0.001787831974704831 0.0
0.0 -0.001787375822742302 0.0
0.0 -0.001787404286558369 0.0
0.0 -0.001787782270118717 0.0
0.0 -0.0017873406268821524 0.0
0.0 -0.0017874950998683805 0.0
0.0 -0.0017877174538486992 0.0
0.0 -0.0017873206462106967 0.0
0.0 -0.0017875855607746385 0.0
0.0 -0.001787629543998512 0.0
0.0 -0.0017873356944928462 0.0
0.0 -0.001787655991144402 0.0
0.0 -0.0017875258496483286 0.0
0.0 -0.0017873972298470674 0.0
0.0 -0.001787680144629119 0.0
0.0 -0.0017874330572105902 0.0
0.0 -0.001787495986230572 0.0
0.0 -0.0017876398947289087 0.0
0.0 -0.0017873900461036194 0.0
0.0 -0.0017875943548987933 0.0
0.0 -0.00178754648952181 0.0
0.0 -0.0017874236876596723 0.0
0.0 -0.0017876385180225485 0.0
0.0 -0.001787450987611639 0.0
0.0 -0.0017875172352715242 0.0
0.0 -0.0017875966674662837 0.0
0.0 -0.0017874207751746901 0.0
0.0 -0.0017876022897019683 0.0
0.0 -0.0017875003407849495 0.0
0.0 -0.0017874816167787462 0.0
0.0 -0.0017876045527134457 0.0
0.0 -0.0017874378935912568 0.0
0.0 -0.0017875744753692207 0.0
0.0 -0.0017875228255349194 0.0
0.0 -0.0017874739841785992 0.0
0.0 -0.0017875976357611487 0.0
0.0 -0.0017874517008548522 0.0
0.0 -0.0017875633911297833 0.0
0.0 -0.0017875250957541334 0.0
0.0 -0.0017874805910047798 0.0
0.0 -0.00178758737590751 0.0
0.0 -0.0017874585651632535 0.0
0.0 -0.0017875650427009978 0.0
0.0 -0.001787514383189443 0.0
0.0 -0.0017874962405158943 0.0
0.0 -0.0017875737414550959 0.0
0.0 -0.0017874635919759717 0.0
0.0 -0.0017875721392204527 0.0
0.0 -0.0017874963114973747 0.0
0.0 -0.001787519922987244 0.0
0.0 -0.0017875522375061935 0.0
0.0 -0.001787475486691345 0.0
0.0 -0.0017875745419344217 0.0
0.0 -0.0017874792691515244 0.0
0.0 -0.001787547596045148 0.0
0.0 -0.0017875211819062373 0.0
0.0 -0.0017875016175299394 0.0
0.0 -0.0017875605112514963 0.0
0.0 -0.0017874771137557151 0.0
0.0 -0.0017875660565762142 0.0
0.0 -0.0017874902767962596 0.0
0.0 -0.0017875382482350245 0.0
0.0 -0.0017875261857625293 0.0
0.0 -0.0017875017016945063 0.0
0.0 -0.0017875565574581474 0.0
0.0 -0.0017874825199927307 0.0
0.0 -0.0017875620349175456 0.0
0.0 -0.0017874906713671605 0.0
0.0 -0.0017875426047301074 0.0
0.0 -0.0017875174657089664 0.0
0.0 -0.00178751312654726 0.0
0.0 -0.0017875450364472883 0.0
0.0 -0.0017874913146144875 0.0
0.0 -0.0017875584714697637 0.0
0.0 -0.001787487461276241 0.0
0.0 -0.0017875529567543834 0.0
0.0 -0.0017875009568577927 0.0
0.0 -0.0017875337310405924 0.0
0.0 -0.0017875232224696135 0.0
0.0 -0.0017875111957416133 0.0
0.0 -0.0017875435379820696 0.0
0.0 -0.0017874950901970372 0.0
0.0 -0.0017875541160025043 0.0
0.0 -0.0017874906631847646 0.0
0.0 -0.0017875524520727269 0.0
0.0 -0.0017874978011353045 0.0
0.0 -0.0017875408972539179 0.0
0.0 -0.0017875124599163418 0.0
0.0 -0.0017875245697163103 0.0
0.0 -0.0017875290628814962 0.0
0.0 -0.0017875089531928336 0.0
0.0 -0.0017875426656886796 0.0
0.0 -0.0017874981322201226 0.0
0.0 -0.0017875502339240686 0.0
0.0 -0.0017874940215012588 0.0
0.0 -0.001787550940035015 0.0
0.0 -0.0017874964724205362 0.0
0.0 -0.0017875457447389456 0.0
0.0 -0.0017875039051323078 0.0
0.0 -0.0017875366462188189 0.0
0.0 -0.0017875140948453432 0.0
0.0 -0.0017875259254471225 0.0
0.0 -0.0017875248458174844 0.0
0.0 -0.0017875155842176037 0.0
0.0 -0.0017875344258691762 0.0
0.0 -0.0017875070403323946 0.0
0.0 -0.0017875417492895522 0.0
0.0 -0.0017875010519196445 0.0
0.0 -0.0017875463639932582 0.0
0.0 -0.0017874977985118954 0.0
0.0 -0.001787548322195191 0.0
0.0 -0.0017874970402883268 0.0
0.0 -0.0017875480070644878 0.0
0.0 -0.0017874982926634267 0.0
0.0 -0.001787545966702099 0.0
0.0 -0.001787500976839082 0.0
0.0 -0.001787542783371645 0.0
0.0 -0.0017875045286631453 0.0
0.0 -0.0017875389869345547 0.0
0.0 -0.00178750846382651 0.0
0.0 -0.0017875350091873243 0.0
0.0 -0.0017875124063858848 0.0
0.0 -0.0017875311698077785 0.0
0.0 -0.0017875160910729088 0.0
0.0 -0.0017875276831765762 0.0
0.0 -0.0017875193497357347 0.0
0.0 -0.0017875246765659682 0.0
0.0 -0.0017875220903078887 0.0
0.0 -0.001787522212547006 0.0
0.0 -0.0017875242741848406 0.0
0.0 -0.001787520310947668 0.0
0.0 -0.0017875258955704278 0.0
0.0 -0.001787518967765573 0.0
0.0 -0.0017875269645782998 0.0
0.0 -0.0017875181699055541 0.0
0.0 -0.0017875274947101287 0.0
0.0 -0.0017875274947101115 0.0
0.0 -0.0017875181699055465 0.0
0.0 -0.001787526964578295 0.0
0.0 -0.0017875189677655724 0.0
0.0 -0.0017875258955704347 0.0
0.0 -0.0017875203109476718 0.0
0.0 -0.001787524274184836 0.0
0.0 -0.001787522212546989 0.0
0.0 -0.0017875220903078907 0.0
0.0 -0.0017875246765659695 0.0
0.0 -0.00178751934973573 0.0
0.0 -0.0017875276831765773 0.0
0.0 -0.0017875160910729197 0.0
0.0 -0.0017875311698077841 0.0
0.0 -0.0017875124063858965 0.0
0.0 -0.0017875350091873076 0.0
0.0 -0.0017875084638265051 0.0
0.0 -0.0017875389869345527 0.0
0.0 -0.0017875045286631485 0.0
0.0 -0.001787542783371662 0.0
0.0 -0.0017875009768390743 0.0
0.0 -0.0017875459667020745 0.0
0.0 -0.001787498292663413 0.0
0.0 -0.001787548007064504 0.0
0.0 -0.001787497040288328 0.0
0.0 -0.0017875483221951847 0.0
0.0 -0.001787497798511889 0.0
0.0 -0.0017875463639932742 0.0
0.0 -0.001787501051919656 0.0
0.0 -0.0017875417492895414 0.0
0.0 -0.0017875070403324028 0.0
0.0 -0.0017875344258692 0.0
0.0 -0.0017875155842176028 0.0
0.0 -0.0017875248458174874 0.0
0.0 -0.0017875259254471123 0.0
0.0 -0.0017875140948453243 0.0
0.0 -0.0017875366462188282 0.0
0.0 -0.001787503905132306 0.0
0.0 -0.0017875457447389508 0.0
0.0 -0.001787496472420541 0.0
0.0 -0.0017875509400350272 0.0
0.0 -0.001787494021501245 0.0
0.0 -0.0017875502339240784 0.0
0.0 -0.001787498132220103 0.0
0.0 -0.0017875426656886754 0.0
0.0 -0.0017875089531928152 0.0
0.0 -0.0017875290628814862 0.0
0.0 -0.0017875245697163012 0.0
0.0 -0.0017875124599163392 0.0
0.0 -0.0017875408972539157 0.0
0.0 -0.0017874978011352951 0.0
0.0 -0.001787552452072727 0.0
0.0 -0.0017874906631847565 0.0
0.0 -0.0017875541160025164 0.0
0.0 -0.001787495090197029 0.0
0.0 -0.001787543537982069 0.0
0.0 -0.0017875111957416099 0.0
0.0 -0.0017875232224695986 0.0
0.0 -0.001787533731040603 0.0
0.0 -0.0017875009568577918 0.0
0.0 -0.0017875529567543927 0.0
0.0 -0.0017874874612762235 0.0
0.0 -0.0017875584714697635 0.0
0.0 -0.0017874913146144879 0.0
0.0 -0.001787545036447285 0.0
0.0 -0.0017875131265472593 0.0
0.0 -0.0017875174657089555 0.0
0.0 -0.0017875426047301256 0.0
0.0 -0.0017874906713671495 0.0
0.0 -0.0017875620349175618 0.0
0.0 -0.0017874825199927404 0.0
0.0 -0.0017875565574581522 0.0
0.0 -0.001787501701694512 0.0
0.0 -0.0017875261857624996 0.0
0.0 -0.0017875382482350401 0.0
0.0 -0.0017874902767962542 0.0
0.0 -0.0017875660565762142 0.0
0.0 -0.00178747711375572 0.0
0.0 -0.0017875605112514926 0.0
0.0 -0.001787501617529947 0.0
0.0 -0.0017875211819062403 0.0
0.0 -0.0017875475960451583 0.0
0.0 -0.0017874792691515147 0.0
0.0 -0.001787574541934435 0.0
0.0 -0.0017874754866913384 0.0
0.0 -0.0017875522375061894 0.0
0.0 -0.0017875199229872665 0.0
0.0 -0.0017874963114973593 0.0
0.0 -0.0017875721392204636 0.0
0.0 -0.001787463591976004 0.0
0.0 -0.0017875737414551084 0.0
0.0 -0.0017874962405158964 0.0
0.0 -0.0017875143831894236 0.0
0.0 -0.001787565042700996 0.0
0.0 -0.00178745856516325 0.0
0.0 -0.0017875873759075104 0.0
0.0 -0.0017874805910047943 0.0
0.0 -0.0017875250957541183 0.0
0.0 -0.0017875633911298037 0.0
0.0 -0.0017874517008548722 0.0
0.0 -0.001787597635761157 0.0
0.0 -0.0017874739841786094 0.0
0.0 -0.0017875228255348978 0.0
0.0 -0.0017875744753692452 0.0
0.0 -0.0017874378935912646 0.0
0.0 -0.0017876045527134383 0.0
0.0 -0.0017874816167787427 0.0
0.0 -0.0017875003407849263 0.0
0.0 -0.0017876022897019886 0.0
0.0 -0.0017874207751746999 0.0
0.0 -0.00178759666746625 0.0
0.0 -0.0017875172352715615 0.0
0.0 -0.001787450987611632 0.0
0.0 -0.0017876385180225554 0.0
0.0 -0.0017874236876596812 0.0
0.0 -0.0017875464895217778 0.0
0.0 -0.0017875943548988215 0.0
0.0 -0.0017873900461036088 0.0
0.0 -0.00178763989472888 0.0
0.0 -0.0017874959862306209 0.0
0.0 -0.0017874330572105498 0.0
0.0 -0.0017876801446291375 0.0
0.0 -0.0017873972298471015 0.0
0.0 -0.0017875258496482685 0.0
0.0 -0.001787655991144423 0.0
0.0 -0.0017873356944928494 0.0
0.0 -0.0017876295439984572 0.0
0.0 -0.001787585560774692 0.0
0.0 -0.0017873206462106646 0.0
0.0 -0.001787717453848669 0.0
0.0 -0.0017874950998684473 0.0
0.0 -0.0017873406268821104 0.0
0.0 -0.0017877822701187122 0.0
0.0 -0.0017874042865584161 0.0
0.0 -0.0017873758227422481 0.0
0.0 -0.0017878319747048374 0.0
0.0 -0.0017873223972878027 0.0
0.0 -0.0017874055215126314 0.0
0.0 -0.0017878829080880238 0.0
0.0 -0.0017872524357926674 0.0
0.0 -0.0017874083322181973 0.0
0.0 -0.0017879540142347085 0.0
0.0 -0.001787200346517754 0.0
0.0 -0.0017873570921208475 0.0
0.0 -0.0017880601850119675 0.0
0.0 -0.0017871896508326107 0.0
0.0 -0.0017872136376845173 0.0
0.0 -0.0017881959565249836 0.0
0.0 -0.0017872827451496504 0.0
0.0 -0.0017869373869694527 0.0
0.0 -0.0017882943961867752 0.0
0.0 -0.0017875977692002093 0.0
0.0 -0.0017865430844615474 0.0
0.0 -0.0017881544477086999 0.0
0.0 -0.0017882609304139775 0.0
0.0 -0.0017862633213882291 0.0
0.0 -0.0017874118906974386 0.0
0.0 -0.001789136876827406 0.0
0.0 -0.001786774104126833 0.0
0.0 -0.0017858854964137583 0.0
0.0 -0.0017892198566356067 0.0
0.0 -0.0017888982321320184 0.0
0.0 -0.001784843338608387 0.0
0.0 -0.001786581160432355 0.0
0.0 -0.0017912771484291392 0.0
0.0 -0.0017880119197689764 0.0
0.0 -0.0017824063989722468 0.0
0.0 -0.0017872486450818353 0.0
0.0 -0.0017946186796604824 0.0
0.0 -0.001788372075535811 0.0
0.0 -0.0017774188552969277 0.0
0.0 -0.0017839536267150677 0.0
0.0 -0.0018016710385008298 0.0
0.0 -0.0017990652735831942 0.0
0.0 -0.001770788409038218 0.0
0.0 -0.0017570082565491797 0.0
0.0 -0.0017925901131512316 0.0
0.0 -0.0018480595392695036 0.0
0.0 -0.0018375466000271272 0.0
0.0 -0.0016872056053248068 0.0
0.0 -0.0013937247923908494 0.0
0.0 -0.0010234037114666774 0.0
0.0 -0.0006649218278253528 0.0
0.0 -0.0003815301677771808 0.0
0.0 -0.00019298863714072153 0.0
0.0 -8.576069257613337e-05 0.0
0.0 -3.326083334828666e-05 0.0
0.0 -1.112284779606452e-05 0.0
0.0 -3.136035333562718e-06 0.0
0.0 -7.118867355101257e-07 0.0
0.0 -1.1528694221662377e-07 0.0
0.0 -6.7823654723756994e-09 0.0
0.0 3.0611158704981483e-09 0.0
0.0 1.2313104170548228e-09 0.0
0.0 2.1734388947841752e-10 0.0
0.0 6.086789903876506e-12 0.0
0.0 -7.283497619256257e-12 0.0
0.0 -1.903568545421974e-12 0.0
0.0 -1.3894287592363715e-13 0.0
0.0 -1.3894287592354254e-13 0.0
0.0 -1.903568545417124e-12 0.0
0.0 -7.283497619238687e-12 0.0
0.0 6.086789903763731e-12 0.0
0.0 2.1734388947688062e-10 0.0
0.0 1.2313104170471114e-09 0.0
0.0 3.0611158704886428e-09 0.0
0.0 -6.782365472204198e-09 0.0
0.0 -1.152869422148841e-07 0.0
0.0 -7.118867355002333e-07 0.0
0.0 -3.136035333521311e-06 0.0
0.0 -1.1122847795927485e-05 0.0
0.0 -3.3260833347907584e-05 0.0
0.0 -8.576069257523478e-05 0.0
0.0 -0.0001929886371388975 0.0
0.0 -0.0003815301677740258 0.0
0.0 -0.00066492182782073 0.0
0.0 -0.0010234037114610686 0.0
0.0 -0.001393724792385465 0.0
0.0 -0.001687205605321096 0.0
0.0 -0.0018375466000258751 0.0
0.0 -0.0018480595392701574 0.0
0.0 -0.0017925901131522629 0.0
0.0 -0.0017570082565493673 0.0
0.0 -0.001770788409037623 0.0
0.0 -0.001799065273582755 0.0
0.0 -0.0018016710385011408 0.0
0.0 -0.0017839536267155343 0.0
0.0 -0.0017774188552967974 0.0
0.0 -0.0017883720755354046 0.0
0.0 -0.0017946186796605423 0.0
0.0 -0.0017872486450821873 0.0
0.0 -0.0017824063989721895 0.0
0.0 -0.0017880119197686672 0.0
0.0 -0.0017912771484292038 0.0
0.0 -0.001786581160432618 0.0
0.0 -0.001784843338608283 0.0
0.0 -0.0017888982321318245 0.0
0.0 -0.0017892198566357707 0.0
0.0 -0.0017858854964138964 0.0
0.0 -0.0017867741041266507 0.0
0.0 -0.0017891368768273889 0.0
0.0 -0.0017874118906976246 0.0
0.0 -0.001786263321388179 0.0
0.0 -0.0017882609304138556 0.0
0.0 -0.0017881544477088254 0.0
0.0 -0.0017865430844615801 0.0
0.0 -0.00178759776920008 0.0
0.0 -0.0017882943961868361 0.0
0.0 -0.001786937386969537 0.0
0.0 -0.0017872827451495448 0.0
0.0 -0.0017881959565250027 0.0
0.0 -0.0017872136376846245 0.0
0.0 -0.001787189650832525 0.0
0.0 -0.0017880601850119634 0.0
0.0 -0.0017873570921209435 0.0
0.0 -0.001787200346517686 0.0
0.0 -0.0017879540142347046 0.0
0.0 -0.0017874083322182873 0.0
0.0 -0.0017872524357926158 0.0
0.0 -0.0017878829080880164 0.0
0.0 -0.0017874055215127025 0.0
0.0 -0.0017873223972877377 0.0
0.0 -0.0017878319747048274 0.0
0.0 -0.001787375822742319 0.0
0.0 -0.001787404286558352 0.0
0.0 -0.0017877822701187188 0.0
0.0 -0.0017873406268821446 0.0
0.0 -0.00178749509986838 0.0
0.0 -0.0017877174538486946 0.0
0.0 -0.0017873206462106746 0.0
0.0 -0.0017875855607746383 0.0
0.0 -0.0017876295439985042 0.0
0.0 -0.0017873356944928431 0.0
0.0 -0.0017876559911443892 0.0
0.0 -0.001787525849648322 0.0
0.0 -0.0017873972298470613 0.0
0.0 -0.0017876801446291156 0.0
0.0 -0.0017874330572105863 0.0
0.0 -0.0017874959862305812 0.0
0.0 -0.001787639894728916 0.0
0.0 -0.0017873900461036118 0.0
0.0 -0.0017875943548987835 0.0
0.0 -0.0017875464895218012 0.0
0.0 -0.0017874236876596634 0.0
0.0 -0.001787638518022559 0.0
0.0 -0.0017874509876116696 0.0
0.0 -0.0017875172352715318 0.0
0.0 -0.0017875966674662732 0.0
0.0 -0.0017874207751746864 0.0
0.0 -0.0017876022897019579 0.0
0.0 -0.0017875003407849535 0.0
0.0 -0.001787481616778725 0.0
0.0 -0.001787604552713437 0.0
0.0 -0.0017874378935912737 0.0
0.0 -0.0017875744753692272 0.0
0.0 -0.001787522825534906 0.0
0.0 -0.001787473984178578 0.0
0.0 -0.001787597635761161 0.0
0.0 -0.0017874517008548618 0.0
0.0 -0.0017875633911297898 0.0
0.0 -0.0017875250957541404 0.0
0.0 -0.0017874805910047728 0.0
0.0 -0.001787587375907509 0.0
0.0 -0.001787458565163244 0.0
0.0 -0.0017875650427010023 0.0
0.0 -0.0017875143831894485 0.0
0.0 -0.00178749624051589 0.0
0.0 -0.001787573741455107 0.0
0.0 -0.0017874635919759832 0.0
0.0 -0.0017875721392204412 0.0
0.0 -0.0017874963114973652 0.0
0.0 -0.0017875199229872463 0.0
0.0 -0.0017875522375062017 0.0
0.0 -0.0017874754866913454 0.0
0.0 -0.0017875745419344343 0.0
0.0 -0.0017874792691515112 0.0
0.0 -0.0017875475960451401 0.0
0.0 -0.0017875211819062483 0.0
0.0 -0.0017875016175299355 0.0
0.0 -0.0017875605112515026 0.0
0.0 -0.0017874771137557164 0.0
0.0 -0.0017875660565762038 0.0
0.0 -0.0017874902767962611 0.0
0.0 -0.0017875382482350293 0.0
0.0 -0.0017875261857625013 0.0
0.0 -0.001787501701694506 0.0
0.0 -0.0017875565574581476 0.0
0.0 -0.0017874825199927287 0.0
0.0 -0.0017875620349175523 0.0
0.0 -0.0017874906713671492 0.0
0.0 -0.0017875426047301187 0.0
0.0 -0.0017875174657089666 0.0
0.0 -0.0017875131265472548 0.0
0.0 -0.0017875450364472803 0.0
0.0 -0.0017874913146144762 0.0
0.0 -0.001787558471469758 0.0
0.0 -0.0017874874612762053 0.0
0.0 -0.0017875529567543838 0.0
0.0 -0.0017875009568577836 0.0
0.0 -0.0017875337310405968 0.0
0.0 -0.0017875232224695942 0.0
0.0 -0.0017875111957416096 0.0
0.0 -0.0017875435379820803 0.0
0.0 -0.0017874950901970341 0.0
0.0 -0.0017875541160025162 0.0
0.0 -0.0017874906631847563 0.0
0.0 -0.0017875524520727388 0.0
0.0 -0.001787497801135301 0.0
0.0 -0.0017875408972539098 0.0
0.0 -0.0017875124599163487 0.0
0.0 -0.001787524569716298 0.0
0.0 -0.0017875290628814834 0.0
0.0 -0.0017875089531928226 0.0
0.0 -0.0017875426656886826 0.0
0.0 -0.0017874981322201068 0.0
0.0 -0.0017875502339240767 0.0
0.0 -0.0017874940215012421 0.0
0.0 -0.0017875509400350224 0.0
0.0 -0.0017874964724205313 0.0
0.0 -0.0017875457447389448 0.0
0.0 -0.0017875039051323078 0.0
0.0 -0.0017875366462188258 0.0
0.0 -0.0017875140948453187 0.0
0.0 -0.0017875259254471055 0.0
0.0 -0.0017875248458174909 0.0
0.0 -0.0017875155842175866 0.0
0.0 -0.001787534425869195 0.0
0.0 -0.0017875070403324028 0.0
0.0 -0.001787541749289533 0.0
0.0 -0.001787501051919651 0.0
0.0 -0.0017875463639932694 0.0
0.0 -0.0017874977985118893 0.0
0.0 -0.0017875483221951943 0.0
0.0 -0.001787497040288339 0.0
0.0 -0.0017875480070644993 0.0
0.0 -0.0017874982926634165 0.0
0.0 -0.0017875459667020784 0.0
0.0 -0.001787500976839071 0.0
0.0 -0.0017875427833716523 0.0
0.0 -0.0017875045286631502 0.0
0.0 -0.0017875389869345508 0.0
0.0 -0.0017875084638265255 0.0
0.0 -0.001787535009187305 0.0
0.0 -0.0017875124063859121 0.0
0.0 -0.0017875311698077902 0.0
0.0 -0.0017875160910729116 0.0
0.0 -0.0017875276831765656 0.0
0.0 -0.001787519349735736 0.0
0.0 -0.0017875246765659736 0.0
0.0 -0.0017875220903078894 0.0
0.0 -0.0017875222125470014 0.0
0.0 -0.0017875242741848328 0.0
0.0 -0.001787520310947672 0.0
0.0 -0.0017875258955704265 0.0
0.0 -0.0017875189677655742 0.0
0.0 -0.0017875269645782944 0.0
0.0 -0.001787518169905546 0.0
0.0 -0.001787527494710112 0.0
0.0 -0.0017875274947101313 0.0
0.0 -0.0017875181699055459 0.0
0.0 -0.0017875269645783057 0.0
0.0 -0.001787518967765563 0.0
0.0 -0.0017875258955704352 0.0
0.0 -0.001787520310947659 0.0
0.0 -0.0017875242741848384 0.0
0.0 -0.0017875222125469938 0.0
0.0 -0.0017875220903078876 0.0
0.0 -0.001787524676565957 0.0
0.0 -0.001787519349735736 0.0
0.0 -0.0017875276831765638 0.0
0.0 -0.0017875160910729214 0.0
0.0 -0.0017875311698077774 0.0
0.0 -0.0017875124063858896 0.0
0.0 -0.0017875350091873217 0.0
0.0 -0.0017875084638265112 0.0
0.0 -0.001787538986934569 0.0
0.0 -0.0017875045286631494 0.0
0.0 -0.0017875427833716497 0.0
0.0 -0.0017875009768390728 0.0
0.0 -0.001787545966702096 0.0
0.0 -0.0017874982926634204 0.0
0.0 -0.0017875480070644772 0.0
0.0 -0.001787497040288327 0.0
0.0 -0.0017875483221951797 0.0
0.0 -0.0017874977985118986 0.0
0.0 -0.0017875463639932716 0.0
0.0 -0.0017875010519196554 0.0
0.0 -0.0017875417492895541 0.0
0.0 -0.0017875070403324 0.0
0.0 -0.0017875344258691775 0.0
0.0 -0.00178751558421761 0.0
0.0 -0.0017875248458174894 0.0
0.0 -0.0017875259254471099 0.0
0.0 -0.0017875140948453425 0.0
0.0 -0.0017875366462188186 0.0
0.0 -0.001787503905132304 0.0
0.0 -0.0017875457447389471 0.0
0.0 -0.0017874964724205345 0.0
0.0 -0.00178755094003501 0.0
0.0 -0.0017874940215012543 0.0
0.0 -0.001787550233924057 0.0
0.0 -0.0017874981322201034 0.0
0.0 -0.001787542665688665 0.0
0.0 -0.001787508953192839 0.0