# vtk DataFile Version 2.0
data_387
ASCII
DATASET UNSTRUCTURED_GRID
POINTS 804 float
0.0 0.0 0.0
0.1 0.0 0.0
0.1 20.0 0.0
0.0 20.0 0.0
0.0 0.0 -0.1
0.1 0.0 -0.1
0.1 20.0 -0.1
0.0 20.0 -0.1
0.1 0.09999999999992462 0.0
0.1 0.1999999999998517 0.0
0.1 0.2999999999997818 0.0
0.1 0.399999999999712 0.0
0.1 0.4999999999996377 0.0
0.1 0.5999999999995541 0.0
0.1 0.6999999999994495 0.0
0.1 0.7999999999993355 0.0
0.1 0.8999999999992101 0.0
0.1 0.999999999999102 0.0
0.1 1.099999999999006 0.0
0.1 1.199999999998936 0.0
0.1 1.299999999998867 0.0
0.1 1.399999999998797 0.0
0.1 1.499999999998727 0.0
0.1 1.599999999998657 0.0
0.1 1.699999999998587 0.0
0.1 1.799999999998517 0.0
0.1 1.899999999998447 0.0
0.1 1.999999999998378 0.0
0.1 2.099999999998308 0.0
0.1 2.199999999998238 0.0
0.1 2.299999999998168 0.0
0.1 2.399999999998067 0.0
0.1 2.499999999997942 0.0
0.1 2.599999999997706 0.0
0.1 2.699999999997444 0.0
0.1 2.799999999997153 0.0
0.1 2.899999999996861 0.0
0.1 2.999999999996569 0.0
0.1 3.099999999996277 0.0
0.1 3.199999999995984 0.0
0.1 3.299999999995693 0.0
0.1 3.399999999995401 0.0
0.1 3.499999999995108 0.0
0.1 3.599999999994816 0.0
0.1 3.699999999994525 0.0
0.1 3.799999999994232 0.0
0.1 3.89999999999394 0.0
0.1 3.999999999993648 0.0
0.1 4.099999999993356 0.0
0.1 4.199999999993064 0.0
0.1 4.299999999992772 0.0
0.1 4.399999999992479 0.0
0.1 4.499999999992188 0.0
0.1 4.599999999991895 0.0
0.1 4.699999999991603 0.0
0.1 4.799999999991311 0.0
0.1 4.899999999991019 0.0
0.1 4.999999999990727 0.0
0.1 5.099999999990436 0.0
0.1 5.199999999990144 0.0
0.1 5.299999999989851 0.0
0.1 5.399999999989559 0.0
0.1 5.499999999989267 0.0
0.1 5.599999999988975 0.0
0.1 5.699999999988683 0.0
0.1 5.799999999988391 0.0
0.1 5.899999999988099 0.0
0.1 5.999999999987806 0.0
0.1 6.099999999987515 0.0
0.1 6.199999999987222 0.0
0.1 6.299999999986929 0.0
0.1 6.399999999986638 0.0
0.1 6.499999999986345 0.0
0.1 6.599999999986054 0.0
0.1 6.699999999985762 0.0
0.1 6.79999999998547 0.0
0.1 6.899999999985177 0.0
0.1 6.999999999984885 0.0
0.1 7.099999999984593 0.0
0.1 7.199999999984302 0.0
0.1 7.299999999984009 0.0
0.1 7.399999999983717 0.0
0.1 7.499999999983426 0.0
0.1 7.599999999983132 0.0
0.1 7.699999999982841 0.0
0.1 7.799999999982549 0.0
0.1 7.899999999982256 0.0
0.1 7.999999999982034 0.0
0.1 8.099999999981964 0.0
0.1 8.199999999982062 0.0
0.1 8.299999999982214 0.0
0.1 8.399999999982366 0.0
0.1 8.499999999982517 0.0
0.1 8.59999999998267 0.0
0.1 8.699999999982822 0.0
0.1 8.799999999982973 0.0
0.1 8.899999999983125 0.0
0.1 8.999999999983277 0.0
0.1 9.09999999998343 0.0
0.1 9.19999999998358 0.0
0.1 9.299999999983733 0.0
0.1 9.399999999983885 0.0
0.1 9.499999999984038 0.0
0.1 9.599999999984188 0.0
0.1 9.69999999998434 0.0
0.1 9.799999999984493 0.0
0.1 9.899999999984646 0.0
0.1 9.999999999984798 0.0
0.1 10.09999999998495 0.0
0.1 10.1999999999851 0.0
0.1 10.29999999998525 0.0
0.1 10.39999999998541 0.0
0.1 10.49999999998556 0.0
0.1 10.59999999998571 0.0
0.1 10.69999999998586 0.0
0.1 10.79999999998601 0.0
0.1 10.89999999998616 0.0
0.1 10.99999999998632 0.0
0.1 11.09999999998647 0.0
0.1 11.19999999998662 0.0
0.1 11.29999999998677 0.0
0.1 11.39999999998693 0.0
0.1 11.49999999998708 0.0
0.1 11.59999999998723 0.0
0.1 11.69999999998738 0.0
0.1 11.79999999998754 0.0
0.1 11.89999999998769 0.0
0.1 11.99999999998784 0.0
0.1 12.09999999998799 0.0
0.1 12.19999999998814 0.0
0.1 12.2999999999883 0.0
0.1 12.39999999998845 0.0
0.1 12.4999999999886 0.0
0.1 12.59999999998875 0.0
0.1 12.6999999999889 0.0
0.1 12.79999999998905 0.0
0.1 12.89999999998921 0.0
0.1 12.99999999998936 0.0
0.1 13.09999999998951 0.0
0.1 13.19999999998966 0.0
0.1 13.29999999998982 0.0
0.1 13.39999999998997 0.0
0.1 13.49999999999012 0.0
0.1 13.59999999999027 0.0
0.1 13.69999999999042 0.0
0.1 13.79999999999057 0.0
0.1 13.89999999999073 0.0
0.1 13.99999999999088 0.0
0.1 14.09999999999103 0.0
0.1 14.19999999999118 0.0
0.1 14.29999999999134 0.0
0.1 14.39999999999149 0.0
0.1 14.49999999999164 0.0
0.1 14.59999999999179 0.0
0.1 14.69999999999194 0.0
0.1 14.7999999999921 0.0
0.1 14.89999999999225 0.0
0.1 14.9999999999924 0.0
0.1 15.09999999999255 0.0
0.1 15.1999999999927 0.0
0.1 15.29999999999285 0.0
0.1 15.39999999999301 0.0
0.1 15.49999999999316 0.0
0.1 15.59999999999331 0.0
0.1 15.69999999999346 0.0
0.1 15.79999999999362 0.0
0.1 15.89999999999377 0.0
0.1 15.99999999999392 0.0
0.1 16.09999999999407 0.0
0.1 16.19999999999422 0.0
0.1 16.29999999999437 0.0
0.1 16.39999999999453 0.0
0.1 16.49999999999468 0.0
0.1 16.59999999999483 0.0
0.1 16.69999999999498 0.0
0.1 16.79999999999514 0.0
0.1 16.89999999999528 0.0
0.1 16.99999999999544 0.0
0.1 17.09999999999559 0.0
0.1 17.19999999999574 0.0
0.1 17.29999999999589 0.0
0.1 17.39999999999605 0.0
0.1 17.4999999999962 0.0
0.1 17.59999999999635 0.0
0.1 17.6999999999965 0.0
0.1 17.79999999999665 0.0
0.1 17.89999999999681 0.0
0.1 17.99999999999696 0.0
0.1 18.09999999999711 0.0
0.1 18.19999999999726 0.0
0.1 18.29999999999742 0.0
0.1 18.39999999999757 0.0
0.1 18.49999999999772 0.0
0.1 18.59999999999787 0.0
0.1 18.69999999999802 0.0
0.1 18.79999999999818 0.0
0.1 18.89999999999833 0.0
0.1 18.99999999999848 0.0
0.1 19.09999999999863 0.0
0.1 19.19999999999878 0.0
0.1 19.29999999999894 0.0
0.1 19.39999999999909 0.0
0.1 19.49999999999924 0.0
0.1 19.59999999999939 0.0
0.1 19.69999999999955 0.0
0.1 19.7999999999997 0.0
0.1 19.89999999999985 0.0
0.0 19.9 0.0
0.0 19.8 0.0
0.0 19.7 0.0
0.0 19.6 0.0
0.0 19.5 0.0
0.0 19.4 0.0
0.0 19.3 0.0
0.0 19.2 0.0
0.0 19.1 0.0
0.0 19.0 0.0
0.0 18.9 0.0
0.0 18.8 0.0
0.0 18.7 0.0
0.0 18.6 0.0
0.0 18.5 0.0
0.0 18.4 0.0
0.0 18.3 0.0
0.0 18.2 0.0
0.0 18.1 0.0
0.0 18.0 0.0
0.0 17.9 0.0
0.0 17.8 0.0
0.0 17.7 0.0
0.0 17.6 0.0
0.0 17.5 0.0
0.0 17.4 0.0
0.0 17.3 0.0
0.0 17.2 0.0
0.0 17.09999999999999 0.0
0.0 17.0 0.0
0.0 16.9 0.0
0.0 16.8 0.0
0.0 16.7 0.0
0.0 16.59999999999999 0.0
0.0 16.49999999999999 0.0
0.0 16.4 0.0
0.0 16.29999999999999 0.0
0.0 16.2 0.0
0.0 16.09999999999999 0.0
0.0 15.99999999999999 0.0
0.0 15.89999999999999 0.0
0.0 15.79999999999999 0.0
0.0 15.69999999999999 0.0
0.0 15.59999999999999 0.0
0.0 15.49999999999999 0.0
0.0 15.39999999999999 0.0
0.0 15.29999999999999 0.0
0.0 15.19999999999999 0.0
0.0 15.09999999999999 0.0
0.0 14.99999999999999 0.0
0.0 14.89999999999999 0.0
0.0 14.79999999999999 0.0
0.0 14.69999999999999 0.0
0.0 14.59999999999999 0.0
0.0 14.49999999999999 0.0
0.0 14.39999999999999 0.0
0.0 14.29999999999999 0.0
0.0 14.19999999999999 0.0
0.0 14.09999999999999 0.0
0.0 13.99999999999999 0.0
0.0 13.89999999999999 0.0
0.0 13.79999999999999 0.0
0.0 13.69999999999999 0.0
0.0 13.59999999999999 0.0
0.0 13.49999999999999 0.0
0.0 13.39999999999999 0.0
0.0 13.29999999999999 0.0
0.0 13.19999999999999 0.0
0.0 13.09999999999999 0.0
0.0 12.99999999999999 0.0
0.0 12.89999999999999 0.0
0.0 12.79999999999999 0.0
0.0 12.69999999999999 0.0
0.0 12.59999999999999 0.0
0.0 12.49999999999999 0.0
0.0 12.39999999999999 0.0
0.0 12.29999999999999 0.0
0.0 12.19999999999999 0.0
0.0 12.09999999999999 0.0
0.0 11.99999999999999 0.0
0.0 11.89999999999999 0.0
0.0 11.79999999999999 0.0
0.0 11.69999999999999 0.0
0.0 11.59999999999999 0.0
0.0 11.49999999999999 0.0
0.0 11.39999999999999 0.0
0.0 11.29999999999999 0.0
0.0 11.19999999999999 0.0
0.0 11.09999999999999 0.0
0.0 10.99999999999999 0.0
0.0 10.89999999999999 0.0
0.0 10.79999999999999 0.0
0.0 10.69999999999999 0.0
0.0 10.59999999999999 0.0
0.0 10.49999999999999 0.0
0.0 10.39999999999999 0.0
0.0 10.29999999999999 0.0
0.0 10.19999999999999 0.0
0.0 10.09999999999999 0.0
0.0 9.999999999999993 0.0
0.0 9.899999999999993 0.0
0.0 9.799999999999994 0.0
0.0 9.699999999999992 0.0
0.0 9.599999999999993 0.0
0.0 9.499999999999993 0.0
0.0 9.399999999999993 0.0
0.0 9.299999999999995 0.0
0.0 9.199999999999996 0.0
0.0 9.099999999999994 0.0
0.0 8.999999999999995 0.0
0.0 8.899999999999995 0.0
0.0 8.799999999999994 0.0
0.0 8.699999999999994 0.0
0.0 8.599999999999994 0.0
0.0 8.499999999999995 0.0
0.0 8.399999999999995 0.0
0.0 8.299999999999994 0.0
0.0 8.199999999999994 0.0
0.0 8.099999999999994 0.0
0.0 7.999999999999993 0.0
0.0 7.899999999999995 0.0
0.0 7.799999999999995 0.0
0.0 7.699999999999996 0.0
0.0 7.599999999999996 0.0
0.0 7.499999999999996 0.0
0.0 7.399999999999995 0.0
0.0 7.299999999999995 0.0
0.0 7.199999999999996 0.0
0.0 7.099999999999994 0.0
0.0 6.999999999999995 0.0
0.0 6.899999999999995 0.0
0.0 6.799999999999995 0.0
0.0 6.699999999999996 0.0
0.0 6.599999999999994 0.0
0.0 6.499999999999995 0.0
0.0 6.399999999999997 0.0
0.0 6.299999999999997 0.0
0.0 6.199999999999996 0.0
0.0 6.099999999999996 0.0
0.0 5.999999999999996 0.0
0.0 5.899999999999997 0.0
0.0 5.799999999999997 0.0
0.0 5.699999999999996 0.0
0.0 5.599999999999996 0.0
0.0 5.499999999999996 0.0
0.0 5.399999999999995 0.0
0.0 5.299999999999995 0.0
0.0 5.199999999999996 0.0
0.0 5.099999999999996 0.0
0.0 4.999999999999998 0.0
0.0 4.899999999999999 0.0
0.0 4.799999999999997 0.0
0.0 4.699999999999998 0.0
0.0 4.599999999999998 0.0
0.0 4.499999999999996 0.0
0.0 4.399999999999997 0.0
0.0 4.299999999999997 0.0
0.0 4.199999999999998 0.0
0.0 4.099999999999998 0.0
0.0 3.999999999999996 0.0
0.0 3.899999999999999 0.0
0.0 3.799999999999997 0.0
0.0 3.699999999999996 0.0
0.0 3.599999999999998 0.0
0.0 3.5 0.0
0.0 3.399999999999999 0.0
0.0 3.299999999999997 0.0
0.0 3.199999999999999 0.0
0.0 3.099999999999998 0.0
0.0 3.0 0.0
0.0 2.899999999999999 0.0
0.0 2.799999999999997 0.0
0.0 2.699999999999999 0.0
0.0 2.599999999999998 0.0
0.0 2.499999999999996 0.0
0.0 2.399999999999999 0.0
0.0 2.299999999999997 0.0
0.0 2.199999999999999 0.0
0.0 2.100000000000001 0.0
0.0 2.0 0.0
0.0 1.899999999999999 0.0
0.0 1.800000000000001 0.0
0.0 1.699999999999999 0.0
0.0 1.599999999999998 0.0
0.0 1.5 0.0
0.0 1.399999999999999 0.0
0.0 1.299999999999997 0.0
0.0 1.199999999999999 0.0
0.0 1.099999999999998 0.0
0.0 1.0 0.0
0.0 0.8999999999999986 0.0
0.0 0.8000000000000007 0.0
0.0 0.6999999999999993 0.0
0.0 0.6000000000000014 0.0
0.0 0.5 0.0
0.0 0.3999999999999986 0.0
0.0 0.3000000000000007 0.0
0.0 0.1999999999999993 0.0
[...]
POINT_DATA 804
VECTORS displacement double
0.0 0.0 0.0
0.0 0.0 0.0
0.0 -0.0017867621144141332 0.0
0.0 -0.001786762114414112 0.0
0.0 0.0 0.0
0.0 0.0 0.0
0.0 -0.001786762114414123 0.0
0.0 -0.0017867621144141282 0.0
0.0 -9.028878043683504e-09 0.0
0.0 1.0692940456646066e-08 0.0
0.0 -3.727008488435586e-09 0.0
0.0 -6.18831519604455e-09 0.0
0.0 1.0689833185194546e-08 0.0
0.0 -6.234924044745141e-09 0.0
0.0 -3.473843285583422e-09 0.0
0.0 9.674853486818204e-09 0.0
0.0 -7.101559486295347e-09 0.0
0.0 -2.2306611479274743e-09 0.0
0.0 9.185400786952357e-09 0.0
0.0 -7.120966980316212e-09 0.0
0.0 -2.97278340430318e-09 0.0
0.0 1.0817785533813265e-08 0.0
0.0 -8.028408570525717e-09 0.0
0.0 -4.898904942095414e-09 0.0
0.0 1.519266004435786e-08 0.0
0.0 -1.1466444649168945e-08 0.0
0.0 -6.298324440598992e-09 0.0
0.0 2.1383446360114486e-08 0.0
0.0 -1.763362040834822e-08 0.0
0.0 -5.949089735317846e-09 0.0
0.0 2.747604416269673e-08 0.0
0.0 -2.4551852459176044e-08 0.0
0.0 -4.791754730483336e-09 0.0
0.0 3.221645781976895e-08 0.0
0.0 -2.876786391014661e-08 0.0
0.0 -6.464858237793451e-09 0.0
0.0 3.6445973502059273e-08 0.0
0.0 -2.7163426203232665e-08 0.0
0.0 -1.5618343285708026e-08 0.0
0.0 4.229100732096433e-08 0.0
0.0 -1.8073885575873362e-08 0.0
0.0 -3.452968307952604e-08 0.0
0.0 4.923370574394807e-08 0.0
0.0 -6.043931993350983e-11 0.0
0.0 -6.0000598718873e-08 0.0
0.0 4.928011183124956e-08 0.0
0.0 3.002850352364486e-08 0.0
0.0 -8.164063893592014e-08 0.0
0.0 2.6357488722836625e-08 0.0
0.0 7.351476878457963e-08 0.0
0.0 -8.034919873278623e-08 0.0
0.0 -3.439575866989221e-08 0.0
0.0 1.152813537152521e-07 0.0
0.0 -2.887985125548104e-08 0.0
0.0 -1.236708538992538e-07 0.0
0.0 1.0617800934985485e-07 0.0
0.0 8.940630487841863e-08 0.0
0.0 -1.7590797137052108e-07 0.0
0.0 -2.0840205983304557e-08 0.0
0.0 2.199049163321952e-07 0.0
0.0 -6.77162603734288e-08 0.0
0.0 -2.449276792680604e-07 0.0
0.0 1.7292447133598367e-07 0.0
0.0 2.4671417697805415e-07 0.0
0.0 -2.948875486895375e-07 0.0
0.0 -2.279865302737467e-07 0.0
0.0 4.237480649057215e-07 0.0
0.0 2.0530580475695584e-07 0.0
0.0 -5.760446828190722e-07 0.0
0.0 -1.9816029648895462e-07 0.0
0.0 7.684542654142383e-07 0.0
0.0 2.2660513288827372e-07 0.0
0.0 -1.0164708296008838e-06 0.0
0.0 -3.5676514628981365e-07 0.0
0.0 1.3371343422172268e-06 0.0
0.0 6.911150288584366e-07 0.0
0.0 -1.7158163513961155e-06 0.0
0.0 -1.412996200154806e-06 0.0
0.0 1.991249258235363e-06 0.0
0.0 2.8026617025784927e-06 0.0
0.0 -1.6800512688562095e-06 0.0
0.0 -5.081638258652964e-06 0.0
0.0 -4.312118041002495e-07 0.0
0.0 7.69405753268998e-06 0.0
0.0 6.554352598189956e-06 0.0
0.0 -7.227719717608095e-06 0.0
0.0 -1.83117137961892e-05 0.0
0.0 -6.812709573768222e-06 0.0
0.0 2.5822473424016608e-05 0.0
0.0 4.56306578037785e-05 0.0
0.0 2.2922144931072088e-06 0.0
0.0 -0.00013977816926797563 0.0
0.0 -0.0003794935826901609 0.0
0.0 -0.0006801545986650822 0.0
0.0 -0.0009890319151578475 0.0
0.0 -0.0012603450180579386 0.0
0.0 -0.0014689129540460073 0.0
0.0 -0.0016112234830328925 0.0
0.0 -0.0016981560865010166 0.0
0.0 -0.0017459513563629497 0.0
0.0 -0.0017696603903141026 0.0
0.0 -0.0017802721425338086 0.0
0.0 -0.0017845507328927643 0.0
0.0 -0.0017860921032857335 0.0
0.0 -0.0017865875120513894 0.0
0.0 -0.0017867233385728501 0.0
0.0 -0.0017867564964008393 0.0
0.0 -0.0017867618937264932 0.0
0.0 -0.0017867622035572547 0.0
0.0 -0.0017867630137915337 0.0
0.0 -0.0017867615924738508 0.0
0.0 -0.001786763232599938 0.0
0.0 -0.0017867615072644715 0.0
0.0 -0.0017867630900921152 0.0
0.0 -0.0017867618386583932 0.0
0.0 -0.001786762627919349 0.0
0.0 -0.0017867623821995512 0.0
0.0 -0.0017867620791177355 0.0
0.0 -0.001786762885842214 0.0
0.0 -0.0017867616824843093 0.0
0.0 -0.0017867631495902664 0.0
0.0 -0.0017867615814164055 0.0
0.0 -0.0017867630964504575 0.0
0.0 -0.0017867617849252723 0.0
0.0 -0.0017867627797211903 0.0
0.0 -0.001786762188743623 0.0
0.0 -0.001786762339567025 0.0
0.0 -0.0017867626335834942 0.0
0.0 -0.0017867619378095717 0.0
0.0 -0.0017867629699221514 0.0
0.0 -0.0017867616997511756 0.0
0.0 -0.0017867631049962565 0.0
0.0 -0.001786761681142744 0.0
0.0 -0.0017867630208467415 0.0
0.0 -0.0017867618646055367 0.0
0.0 -0.0017867627651764056 0.0
0.0 -0.001786762178899449 0.0
0.0 -0.0017867624250117796 0.0
0.0 -0.0017867625291694848 0.0
0.0 -0.0017867620955204382 0.0
0.0 -0.0017867628265034834 0.0
0.0 -0.0017867618540863182 0.0
0.0 -0.001786763008834037 0.0
0.0 -0.0017867617452015524 0.0
0.0 -0.0017867630500486879 0.0
0.0 -0.001786761777080959 0.0
0.0 -0.001786762958292703 0.0
0.0 -0.0017867619275482188 0.0
0.0 -0.001786762766925446 0.0
0.0 -0.0017867621551678314 0.0
0.0 -0.0017867625223238687 0.0
0.0 -0.0017867624115916359 0.0
0.0 -0.0017867622721495268 0.0
0.0 -0.001786762652087806 0.0
0.0 -0.0017867620564348424 0.0
0.0 -0.0017867628425994413 0.0
0.0 -0.0017867619024664555 0.0
0.0 -0.001786762962961204 0.0
0.0 -0.001786761823325221 0.0
0.0 -0.0017867630068185718 0.0
0.0 -0.001786761819247099 0.0
0.0 -0.0017867629792686407 0.0
0.0 -0.001786761880697459 0.0
0.0 -0.0017867628933382288 0.0
0.0 -0.001786761992100671 0.0
0.0 -0.0017867627662524696 0.0
0.0 -0.0017867621354058726 0.0
0.0 -0.0017867626161619141 0.0
0.0 -0.0017867622929778227 0.0
0.0 -0.0017867624596885265 0.0
0.0 -0.001786762449589608 0.0
0.0 -0.0017867623103928676 0.0
0.0 -0.0017867625935167612 0.0
0.0 -0.001786762178082985 0.0
0.0 -0.0017867627168716164 0.0
0.0 -0.0017867620687848616 0.0
0.0 -0.001786762815382197 0.0
0.0 -0.0017867619851604025 0.0
0.0 -0.0017867628878282347 0.0
0.0 -0.0017867619271711393 0.0
0.0 -0.0017867629353186453 0.0
0.0 -0.0017867618928242473 0.0
0.0 -0.0017867629605508627 0.0
0.0 -0.0017867618788851537 0.0
0.0 -0.0017867629671437998 0.0
0.0 -0.0017867618814867655 0.0
0.0 -0.0017867629590939942 0.0
0.0 -0.00178676189660408 0.0
0.0 -0.0017867629403712807 0.0
0.0 -0.0017867619203898056 0.0
0.0 -0.0017867629146481035 0.0
0.0 -0.0017867619493850528 0.0
0.0 -0.0017867628851432743 0.0
0.0 -0.00178676198062739 0.0
0.0 -0.0017867628545553522 0.0
0.0 -0.00178676201168241 0.0
0.0 -0.001786762825060024 0.0
0.0 -0.0017867620406230504 0.0
0.0 -0.0017867627983488529 0.0
0.0 -0.0017867620659780036 0.0
0.0 -0.001786762775689602 0.0
0.0 -0.0017867620866659337 0.0
0.0 -0.0017867627579940715 0.0
0.0 -0.0017867621019283808 0.0
0.0 -0.001786762745882248 0.0
0.0 -0.0017867621112703576 0.0
0.0 -0.001786762739735823 0.0
0.0 -0.0017867627397358144 0.0
0.0 -0.0017867621112703594 0.0
0.0 -0.0017867627458822504 0.0
0.0 -0.0017867621019283999 0.0
0.0 -0.0017867627579940648 0.0
0.0 -0.0017867620866659274 0.0
0.0 -0.0017867627756896081 0.0
0.0 -0.0017867620659780031 0.0
0.0 -0.0017867627983488474 0.0
0.0 -0.0017867620406230539 0.0
0.0 -0.0017867628250600402 0.0
0.0 -0.001786762011682393 0.0
0.0 -0.0017867628545553324 0.0
0.0 -0.0017867619806273842 0.0
0.0 -0.0017867628851432882 0.0
0.0 -0.0017867619493850623 0.0
0.0 -0.0017867629146481028 0.0
0.0 -0.001786761920389827 0.0
0.0 -0.001786762940371281 0.0
0.0 -0.0017867618966040811 0.0
0.0 -0.0017867629590939957 0.0
0.0 -0.0017867618814867714 0.0
0.0 -0.0017867629671437996 0.0
0.0 -0.0017867618788851565 0.0
0.0 -0.001786762960550862 0.0
0.0 -0.001786761892824255 0.0
0.0 -0.001786762935318646 0.0
0.0 -0.001786761927171139 0.0
0.0 -0.0017867628878282386 0.0
0.0 -0.0017867619851604083 0.0
0.0 -0.0017867628153822059 0.0
0.0 -0.0017867620687848943 0.0
0.0 -0.0017867627168716177 0.0
0.0 -0.001786762178082991 0.0
0.0 -0.001786762593516765 0.0
0.0 -0.0017867623103928587 0.0
0.0 -0.0017867624495896176 0.0
0.0 -0.0017867624596885174 0.0
0.0 -0.0017867622929778294 0.0
0.0 -0.0017867626161619248 0.0
0.0 -0.0017867621354058828 0.0
0.0 -0.0017867627662524763 0.0
0.0 -0.0017867619921006555 0.0
0.0 -0.0017867628933382292 0.0
0.0 -0.0017867618806974633 0.0
0.0 -0.0017867629792686517 0.0
0.0 -0.0017867618192470979 0.0
0.0 -0.0017867630068185538 0.0
0.0 -0.0017867618233252203 0.0
0.0 -0.0017867629629612074 0.0
0.0 -0.0017867619024664564 0.0
0.0 -0.0017867628425994211 0.0
0.0 -0.0017867620564348352 0.0
0.0 -0.0017867626520878027 0.0
0.0 -0.0017867622721495424 0.0
0.0 -0.0017867624115916298 0.0
0.0 -0.0017867625223238687 0.0
0.0 -0.0017867621551678364 0.0
0.0 -0.0017867627669254402 0.0
0.0 -0.0017867619275482277 0.0
0.0 -0.0017867629582927007 0.0
0.0 -0.0017867617770809458 0.0
0.0 -0.0017867630500486946 0.0
0.0 -0.0017867617452015693 0.0
0.0 -0.0017867630088340505 0.0
0.0 -0.0017867618540863312 0.0
0.0 -0.0017867628265034754 0.0
0.0 -0.0017867620955204307 0.0
0.0 -0.001786762529169486 0.0
0.0 -0.0017867624250117722 0.0
0.0 -0.0017867621788994477 0.0
0.0 -0.0017867627651763978 0.0
0.0 -0.0017867618646055362 0.0
0.0 -0.0017867630208467352 0.0
0.0 -0.0017867616811427331 0.0
0.0 -0.0017867631049962535 0.0
0.0 -0.0017867616997511895 0.0
0.0 -0.001786762969922132 0.0
0.0 -0.001786761937809559 0.0
0.0 -0.0017867626335834842 0.0
0.0 -0.0017867623395670324 0.0
0.0 -0.0017867621887436142 0.0
0.0 -0.0017867627797211957 0.0
0.0 -0.0017867617849252743 0.0
0.0 -0.001786763096450448 0.0
0.0 -0.0017867615814164267 0.0
0.0 -0.0017867631495902655 0.0
0.0 -0.0017867616824842998 0.0
0.0 -0.001786762885842217 0.0
0.0 -0.0017867620791177593 0.0
0.0 -0.0017867623821995414 0.0
0.0 -0.0017867626279193516 0.0
0.0 -0.0017867618386583739 0.0
0.0 -0.0017867630900921003 0.0
0.0 -0.001786761507264477 0.0
0.0 -0.001786763232599938 0.0
0.0 -0.0017867615924738443 0.0
0.0 -0.0017867630137915402 0.0
0.0 -0.0017867622035572382 0.0
0.0 -0.0017867618937264945 0.0
0.0 -0.0017867564964008406 0.0
0.0 -0.0017867233385728744 0.0
0.0 -0.0017865875120514233 0.0
0.0 -0.0017860921032858844 0.0
0.0 -0.0017845507328931524 0.0
0.0 -0.0017802721425348679 0.0
0.0 -0.0017696603903166442 0.0
0.0 -0.0017459513563684644 0.0
0.0 -0.0016981560865117237 0.0
0.0 -0.001611223483051624 0.0
0.0 -0.0014689129540754469 0.0
0.0 -0.0012603450180991467 0.0
0.0 -0.0009890319152087242 0.0
0.0 -0.0006801545987194035 0.0
0.0 -0.0003794935827388021 0.0
0.0 -0.00013977816930225444 0.0
0.0 2.2922144771648853e-06 0.0
0.0 4.563065780309314e-05 0.0
0.0 2.5822473430131833e-05 0.0
0.0 -6.812709569279161e-06 0.0
0.0 -1.8311713796551086e-05 0.0
0.0 -7.227719720407343e-06 0.0
0.0 6.554352596726133e-06 0.0
0.0 7.694057533592849e-06 0.0
0.0 -4.312118027375737e-07 0.0
0.0 -5.08163825861896e-06 0.0
0.0 -1.6800512697241634e-06 0.0
0.0 2.8026617022389112e-06 0.0
0.0 1.9912492587112543e-06 0.0
0.0 -1.4129961997912738e-06 0.0
0.0 -1.715816351645642e-06 0.0
0.0 6.911150285503557e-07 0.0
0.0 1.3371343423460616e-06 0.0
0.0 -3.567651460602471e-07 0.0
0.0 -1.016470829671942e-06 0.0
0.0 2.2660513271529906e-07 0.0
0.0 7.684542654551002e-07 0.0
0.0 -1.981602963641767e-07 0.0
0.0 -5.7604468285935e-07 0.0
0.0 2.0530580466597344e-07 0.0
0.0 4.2374806494419253e-07 0.0
0.0 -2.2798653021226003e-07 0.0
0.0 -2.948875487343699e-07 0.0
0.0 2.467141769366593e-07 0.0
0.0 1.7292447137480605e-07 0.0
0.0 -2.449276792578602e-07 0.0
0.0 -6.771626041534554e-08 0.0
0.0 2.1990491632325458e-07 0.0
0.0 -2.084020595654152e-08 0.0
0.0 -1.7590797138213676e-07 0.0
0.0 8.940630485880319e-08 0.0
0.0 1.0617800936871318e-07 0.0
0.0 -1.2367085388993982e-07 0.0
0.0 -2.8879851273472455e-08 0.0
0.0 1.152813537144913e-07 0.0
0.0 -3.43957586587112e-08 0.0
0.0 -8.034919873745808e-08 0.0
0.0 7.351476877566098e-08 0.0
0.0 2.6357488730608377e-08 0.0
0.0 -8.16406389345085e-08 0.0
0.0 3.0028503514533606e-08 0.0
0.0 4.928011183516758e-08 0.0
0.0 -6.000059871437675e-08 0.0
0.0 -6.043932415210114e-11 0.0
0.0 4.9233705745205126e-08 0.0
0.0 -3.452968307997438e-08 0.0
0.0 -1.8073885579472524e-08 0.0
0.0 4.229100732172497e-08 0.0
0.0 -1.56183432824228e-08 0.0
0.0 -2.716342620488888e-08 0.0
0.0 3.6445973501664775e-08 0.0
0.0 -6.4648582337354245e-09 0.0
0.0 -2.8767863910056112e-08 0.0
0.0 3.221645781653765e-08 0.0
0.0 -4.79175473315511e-09 0.0
0.0 -2.4551852462849712e-08 0.0
0.0 2.7476044162959694e-08 0.0
0.0 -5.949089734909634e-09 0.0
0.0 -1.7633620407192497e-08 0.0
0.0 2.1383446359900895e-08 0.0
0.0 -6.298324440337995e-09 0.0
0.0 -1.1466444648839616e-08 0.0
0.0 1.5192660044181414e-08 0.0
0.0 -4.8989049426462014e-09 0.0
0.0 -8.028408572024628e-09 0.0
0.0 1.0817785532729197e-08 0.0
0.0 -2.972783405250554e-09 0.0
0.0 -7.120966981273599e-09 0.0
0.0 9.185400786106798e-09 0.0
0.0 -2.2306611479090638e-09 0.0
0.0 -7.101559486868692e-09 0.0
0.0 9.674853487015566e-09 0.0
0.0 -3.473843285797044e-09 0.0
0.0 -6.2349240461704555e-09 0.0
0.0 1.068983318519006e-08 0.0
0.0 -6.188315194154755e-09 0.0
0.0 -3.727008487276473e-09 0.0
0.0 1.0692940456672157e-08 0.0
0.0 -9.028878044590238e-09 0.0
0.0 -9.02887804337308e-09 0.0
0.0 1.0692940457231438e-08 0.0
0.0 -3.72700848905843e-09 0.0
0.0 -6.188315196812753e-09 0.0
0.0 1.0689833184683133e-08 0.0
0.0 -6.234924044694823e-09 0.0
0.0 -3.4738432850521547e-09 0.0
0.0 9.67485348620652e-09 0.0
0.0 -7.10155948835768e-09 0.0
0.0 -2.230661147881222e-09 0.0
0.0 9.185400788843141e-09 0.0
0.0 -7.12096697904913e-09 0.0
0.0 -2.9727834055255483e-09 0.0
0.0 1.0817785534231008e-08 0.0
0.0 -8.028408570881671e-09 0.0
0.0 -4.898904942487231e-09 0.0
0.0 1.5192660044171835e-08 0.0
0.0 -1.1466444650405562e-08 0.0
0.0 -6.298324441136979e-09 0.0
0.0 2.1383446359875725e-08 0.0
0.0 -1.763362040640076e-08 0.0
0.0 -5.949089735666247e-09 0.0
0.0 2.7476044162990495e-08 0.0
0.0 -2.4551852461196694e-08 0.0
0.0 -4.7917547298075845e-09 0.0
0.0 3.2216457821464476e-08 0.0
0.0 -2.8767863908555587e-08 0.0
0.0 -6.4648582352766274e-09 0.0
0.0 3.6445973503186324e-08 0.0
0.0 -2.716342620238346e-08 0.0
0.0 -1.5618343287700648e-08 0.0
0.0 4.229100731930302e-08 0.0
0.0 -1.8073885577552763e-08 0.0
0.0 -3.452968308489685e-08 0.0
0.0 4.9233705742893513e-08 0.0
0.0 -6.043931925019785e-11 0.0
0.0 -6.000059871724756e-08 0.0
0.0 4.928011183240782e-08 0.0
0.0 3.002850352495776e-08 0.0
0.0 -8.16406389347973e-08 0.0
0.0 2.6357488721267324e-08 0.0
0.0 7.351476878121197e-08 0.0
0.0 -8.034919873473348e-08 0.0
0.0 -3.439575867216978e-08 0.0
0.0 1.152813537163671e-07 0.0
0.0 -2.8879851256200765e-08 0.0
0.0 -1.2367085390096768e-07 0.0
0.0 1.0617800934833828e-07 0.0
0.0 8.94063048797338e-08 0.0
0.0 -1.7590797136961764e-07 0.0
0.0 -2.0840205983258512e-08 0.0
0.0 2.1990491633038708e-07 0.0
0.0 -6.771626037268388e-08 0.0
0.0 -2.449276792689681e-07 0.0
0.0 1.7292447133134786e-07 0.0
0.0 2.467141769742243e-07 0.0
0.0 -2.948875486890008e-07 0.0
0.0 -2.279865302749678e-07 0.0
0.0 4.237480649004379e-07 0.0
0.0 2.0530580475160238e-07 0.0
0.0 -5.760446828195959e-07 0.0
0.0 -1.981602964952337e-07 0.0
0.0 7.684542654109774e-07 0.0
0.0 2.2660513289055844e-07 0.0
0.0 -1.0164708296002396e-06 0.0
0.0 -3.567651462900316e-07 0.0
0.0 1.3371343422133764e-06 0.0
0.0 6.911150288538865e-07 0.0
0.0 -1.7158163513926805e-06 0.0
0.0 -1.4129962001560953e-06 0.0
0.0 1.9912492582326675e-06 0.0
0.0 2.802661702582638e-06 0.0
0.0 -1.6800512688532504e-06 0.0
0.0 -5.081638258657919e-06 0.0
0.0 -4.312118040925097e-07 0.0
0.0 7.694057532695106e-06 0.0
0.0 6.5543525981852415e-06 0.0
0.0 -7.227719717609626e-06 0.0
0.0 -1.8311713796196925e-05 0.0
0.0 -6.812709573779945e-06 0.0
0.0 2.5822473424003475e-05 0.0
0.0 4.5630657803784074e-05 0.0
0.0 2.2922144931039494e-06 0.0
0.0 -0.00013977816926797286 0.0
0.0 -0.00037949358269016457 0.0
0.0 -0.0006801545986650899 0.0
0.0 -0.000989031915157857 0.0
0.0 -0.0012603450180579284 0.0
0.0 -0.0014689129540460001 0.0
0.0 -0.0016112234830328864 0.0
0.0 -0.0016981560865010135 0.0
0.0 -0.0017459513563629627 0.0
0.0 -0.0017696603903140902 0.0
0.0 -0.0017802721425337956 0.0
0.0 -0.0017845507328927656 0.0
0.0 -0.0017860921032857525 0.0
0.0 -0.0017865875120513814 0.0
0.0 -0.0017867233385728566 0.0
0.0 -0.0017867564964008252 0.0
0.0 -0.001786761893726485 0.0
0.0 -0.0017867622035572346 0.0
0.0 -0.0017867630137915422 0.0
0.0 -0.0017867615924738438 0.0
0.0 -0.0017867632325999409 0.0
0.0 -0.0017867615072644821 0.0
0.0 -0.001786763090092105 0.0
0.0 -0.0017867618386583834 0.0
0.0 -0.0017867626279193497 0.0
0.0 -0.0017867623821995367 0.0
0.0 -0.0017867620791177452 0.0
0.0 -0.0017867628858422096 0.0
0.0 -0.0017867616824843082 0.0
0.0 -0.0017867631495902783 0.0
0.0 -0.001786761581416416 0.0
0.0 -0.001786763096450453 0.0
0.0 -0.0017867617849252634 0.0
0.0 -0.0017867627797211968 0.0
0.0 -0.001786762188743609 0.0
0.0 -0.0017867623395670317 0.0
0.0 -0.0017867626335834868 0.0
0.0 -0.001786761937809568 0.0
0.0 -0.0017867629699221356 0.0
0.0 -0.001786761699751185 0.0
0.0 -0.0017867631049962513 0.0
0.0 -0.0017867616811427262 0.0
0.0 -0.0017867630208467328 0.0
0.0 -0.0017867618646055295 0.0
0.0 -0.0017867627651763991 0.0
0.0 -0.0017867621788994529 0.0
0.0 -0.001786762425011775 0.0
0.0 -0.0017867625291694868 0.0
0.0 -0.0017867620955204378 0.0
0.0 -0.0017867628265034721 0.0
0.0 -0.0017867618540863231 0.0
0.0 -0.0017867630088340516 0.0
0.0 -0.0017867617452015654 0.0
0.0 -0.0017867630500486879 0.0
0.0 -0.0017867617770809538 0.0
0.0 -0.0017867629582926964 0.0
0.0 -0.0017867619275482255 0.0
0.0 -0.0017867627669254373 0.0
0.0 -0.0017867621551678342 0.0
0.0 -0.0017867625223238618 0.0
0.0 -0.0017867624115916303 0.0
0.0 -0.0017867622721495305 0.0
0.0 -0.0017867626520878133 0.0
0.0 -0.0017867620564348383 0.0
0.0 -0.0017867628425994255 0.0
0.0 -0.0017867619024664566 0.0
0.0 -0.0017867629629612016 0.0
0.0 -0.0017867618233252196 0.0
0.0 -0.0017867630068185635 0.0
0.0 -0.001786761819247091 0.0
0.0 -0.0017867629792686535 0.0
0.0 -0.0017867618806974548 0.0
0.0 -0.0017867628933382227 0.0
0.0 -0.0017867619921006564 0.0
0.0 -0.0017867627662524774 0.0
0.0 -0.0017867621354058733 0.0
0.0 -0.0017867626161619087 0.0
0.0 -0.0017867622929778298 0.0
0.0 -0.0017867624596885228 0.0
0.0 -0.0017867624495896159 0.0
0.0 -0.0017867623103928513 0.0
0.0 -0.0017867625935167565 0.0
0.0 -0.0017867621780829927 0.0
0.0 -0.0017867627168716134 0.0
0.0 -0.0017867620687848824 0.0
0.0 -0.001786762815382206 0.0
0.0 -0.0017867619851604103 0.0
0.0 -0.0017867628878282392 0.0
0.0 -0.0017867619271711341 0.0
0.0 -0.001786762935318656 0.0
0.0 -0.0017867618928242574 0.0
0.0 -0.001786762960550855 0.0
0.0 -0.0017867618788851521 0.0
0.0 -0.0017867629671438057 0.0
0.0 -0.0017867618814867783 0.0
0.0 -0.0017867629590939873 0.0
0.0 -0.0017867618966040718 0.0
0.0 -0.0017867629403712816 0.0
0.0 -0.001786761920389825 0.0
0.0 -0.0017867629146481167 0.0
0.0 -0.0017867619493850656 0.0
0.0 -0.0017867628851432956 0.0
0.0 -0.0017867619806273972 0.0
0.0 -0.0017867628545553415 0.0
0.0 -0.0017867620116824065 0.0
0.0 -0.001786762825060045 0.0
0.0 -0.0017867620406230556 0.0
0.0 -0.0017867627983488552 0.0
0.0 -0.001786762065978 0.0
0.0 -0.0017867627756896131 0.0
0.0 -0.0017867620866659243 0.0
0.0 -0.0017867627579940656 0.0
0.0 -0.0017867621019283873 0.0
0.0 -0.0017867627458822396 0.0
0.0 -0.0017867621112703665 0.0
0.0 -0.0017867627397358213 0.0
0.0 -0.0017867627397358103 0.0
0.0 -0.0017867621112703535 0.0
0.0 -0.0017867627458822539 0.0
0.0 -0.0017867621019283858 0.0
0.0 -0.0017867627579940635 0.0
0.0 -0.0017867620866659384 0.0
0.0 -0.001786762775689614 0.0
0.0 -0.0017867620659779973 0.0
0.0 -0.0017867627983488598 0.0
0.0 -0.0017867620406230508 0.0
0.0 -0.0017867628250600224 0.0
0.0 -0.001786762011682402 0.0
0.0 -0.0017867628545553357 0.0
0.0 -0.001786761980627386 0.0
0.0 -0.0017867628851432741 0.0
0.0 -0.0017867619493850465 0.0
0.0 -0.001786762914648109 0.0
0.0 -0.0017867619203897997 0.0
0.0 -0.0017867629403712944 0.0
0.0 -0.0017867618966040729 0.0
0.0 -0.0017867629590939897 0.0
0.0 -0.0017867618814867705 0.0
0.0 -0.001786762967143804 0.0
0.0 -0.001786761878885167 0.0
0.0 -0.001786762960550862 0.0
0.0 -0.0017867618928242446 0.0
0.0 -0.0017867629353186469 0.0
0.0 -0.0017867619271711383 0.0
0.0 -0.0017867628878282399 0.0
0.0 -0.0017867619851604038 0.0
0.0 -0.001786762815382198 0.0
0.0 -0.0017867620687848735 0.0
0.0 -0.0017867627168716154 0.0
0.0 -0.001786762178082975 0.0
0.0 -0.0017867625935167576 0.0
0.0 -0.001786762310392857 0.0
0.0 -0.0017867624495896102 0.0
0.0 -0.0017867624596885298 0.0
0.0 -0.0017867622929778196 0.0
0.0 -0.0017867626161619094 0.0
0.0 -0.001786762135405876 0.0
0.0 -0.0017867627662524754 0.0
0.0 -0.0017867619921006692 0.0
0.0 -0.001786762893338232 0.0