# vtk DataFile Version 2.0
data_94
ASCII
DATASET UNSTRUCTURED_GRID
POINTS 804 float
0.0 0.0 0.0
0.1 0.0 0.0
0.1 20.0 0.0
0.0 20.0 0.0
0.0 0.0 -0.1
0.1 0.0 -0.1
0.1 20.0 -0.1
0.0 20.0 -0.1
0.1 0.09999999999992462 0.0
0.1 0.1999999999998517 0.0
0.1 0.2999999999997818 0.0
0.1 0.399999999999712 0.0
0.1 0.4999999999996377 0.0
0.1 0.5999999999995541 0.0
0.1 0.6999999999994495 0.0
0.1 0.7999999999993355 0.0
0.1 0.8999999999992101 0.0
0.1 0.999999999999102 0.0
0.1 1.099999999999006 0.0
0.1 1.199999999998936 0.0
0.1 1.299999999998867 0.0
0.1 1.399999999998797 0.0
0.1 1.499999999998727 0.0
0.1 1.599999999998657 0.0
0.1 1.699999999998587 0.0
0.1 1.799999999998517 0.0
0.1 1.899999999998447 0.0
0.1 1.999999999998378 0.0
0.1 2.099999999998308 0.0
0.1 2.199999999998238 0.0
0.1 2.299999999998168 0.0
0.1 2.399999999998067 0.0
0.1 2.499999999997942 0.0
0.1 2.599999999997706 0.0
0.1 2.699999999997444 0.0
0.1 2.799999999997153 0.0
0.1 2.899999999996861 0.0
0.1 2.999999999996569 0.0
0.1 3.099999999996277 0.0
0.1 3.199999999995984 0.0
0.1 3.299999999995693 0.0
0.1 3.399999999995401 0.0
0.1 3.499999999995108 0.0
0.1 3.599999999994816 0.0
0.1 3.699999999994525 0.0
0.1 3.799999999994232 0.0
0.1 3.89999999999394 0.0
0.1 3.999999999993648 0.0
0.1 4.099999999993356 0.0
0.1 4.199999999993064 0.0
0.1 4.299999999992772 0.0
0.1 4.399999999992479 0.0
0.1 4.499999999992188 0.0
0.1 4.599999999991895 0.0
0.1 4.699999999991603 0.0
0.1 4.799999999991311 0.0
0.1 4.899999999991019 0.0
0.1 4.999999999990727 0.0
0.1 5.099999999990436 0.0
0.1 5.199999999990144 0.0
0.1 5.299999999989851 0.0
0.1 5.399999999989559 0.0
0.1 5.499999999989267 0.0
0.1 5.599999999988975 0.0
0.1 5.699999999988683 0.0
0.1 5.799999999988391 0.0
0.1 5.899999999988099 0.0
0.1 5.999999999987806 0.0
0.1 6.099999999987515 0.0
0.1 6.199999999987222 0.0
0.1 6.299999999986929 0.0
0.1 6.399999999986638 0.0
0.1 6.499999999986345 0.0
0.1 6.599999999986054 0.0
0.1 6.699999999985762 0.0
0.1 6.79999999998547 0.0
0.1 6.899999999985177 0.0
0.1 6.999999999984885 0.0
0.1 7.099999999984593 0.0
0.1 7.199999999984302 0.0
0.1 7.299999999984009 0.0
0.1 7.399999999983717 0.0
0.1 7.499999999983426 0.0
0.1 7.599999999983132 0.0
0.1 7.699999999982841 0.0
0.1 7.799999999982549 0.0
0.1 7.899999999982256 0.0
0.1 7.999999999982034 0.0
0.1 8.099999999981964 0.0
0.1 8.199999999982062 0.0
0.1 8.299999999982214 0.0
0.1 8.399999999982366 0.0
0.1 8.499999999982517 0.0
0.1 8.59999999998267 0.0
0.1 8.699999999982822 0.0
0.1 8.799999999982973 0.0
0.1 8.899999999983125 0.0
0.1 8.999999999983277 0.0
0.1 9.09999999998343 0.0
0.1 9.19999999998358 0.0
0.1 9.299999999983733 0.0
0.1 9.399999999983885 0.0
0.1 9.499999999984038 0.0
0.1 9.599999999984188 0.0
0.1 9.69999999998434 0.0
0.1 9.799999999984493 0.0
0.1 9.899999999984646 0.0
0.1 9.999999999984798 0.0
0.1 10.09999999998495 0.0
0.1 10.1999999999851 0.0
0.1 10.29999999998525 0.0
0.1 10.39999999998541 0.0
0.1 10.49999999998556 0.0
0.1 10.59999999998571 0.0
0.1 10.69999999998586 0.0
0.1 10.79999999998601 0.0
0.1 10.89999999998616 0.0
0.1 10.99999999998632 0.0
0.1 11.09999999998647 0.0
0.1 11.19999999998662 0.0
0.1 11.29999999998677 0.0
0.1 11.39999999998693 0.0
0.1 11.49999999998708 0.0
0.1 11.59999999998723 0.0
0.1 11.69999999998738 0.0
0.1 11.79999999998754 0.0
0.1 11.89999999998769 0.0
0.1 11.99999999998784 0.0
0.1 12.09999999998799 0.0
0.1 12.19999999998814 0.0
0.1 12.2999999999883 0.0
0.1 12.39999999998845 0.0
0.1 12.4999999999886 0.0
0.1 12.59999999998875 0.0
0.1 12.6999999999889 0.0
0.1 12.79999999998905 0.0
0.1 12.89999999998921 0.0
0.1 12.99999999998936 0.0
0.1 13.09999999998951 0.0
0.1 13.19999999998966 0.0
0.1 13.29999999998982 0.0
0.1 13.39999999998997 0.0
0.1 13.49999999999012 0.0
0.1 13.59999999999027 0.0
0.1 13.69999999999042 0.0
0.1 13.79999999999057 0.0
0.1 13.89999999999073 0.0
0.1 13.99999999999088 0.0
0.1 14.09999999999103 0.0
0.1 14.19999999999118 0.0
0.1 14.29999999999134 0.0
0.1 14.39999999999149 0.0
0.1 14.49999999999164 0.0
0.1 14.59999999999179 0.0
0.1 14.69999999999194 0.0
0.1 14.7999999999921 0.0
0.1 14.89999999999225 0.0
0.1 14.9999999999924 0.0
0.1 15.09999999999255 0.0
0.1 15.1999999999927 0.0
0.1 15.29999999999285 0.0
0.1 15.39999999999301 0.0
0.1 15.49999999999316 0.0
0.1 15.59999999999331 0.0
0.1 15.69999999999346 0.0
0.1 15.79999999999362 0.0
0.1 15.89999999999377 0.0
0.1 15.99999999999392 0.0
0.1 16.09999999999407 0.0
0.1 16.19999999999422 0.0
0.1 16.29999999999437 0.0
0.1 16.39999999999453 0.0
0.1 16.49999999999468 0.0
0.1 16.59999999999483 0.0
0.1 16.69999999999498 0.0
0.1 16.79999999999514 0.0
0.1 16.89999999999528 0.0
0.1 16.99999999999544 0.0
0.1 17.09999999999559 0.0
0.1 17.19999999999574 0.0
0.1 17.29999999999589 0.0
0.1 17.39999999999605 0.0
0.1 17.4999999999962 0.0
0.1 17.59999999999635 0.0
0.1 17.6999999999965 0.0
0.1 17.79999999999665 0.0
0.1 17.89999999999681 0.0
0.1 17.99999999999696 0.0
0.1 18.09999999999711 0.0
0.1 18.19999999999726 0.0
0.1 18.29999999999742 0.0
0.1 18.39999999999757 0.0
0.1 18.49999999999772 0.0
0.1 18.59999999999787 0.0
0.1 18.69999999999802 0.0
0.1 18.79999999999818 0.0
0.1 18.89999999999833 0.0
0.1 18.99999999999848 0.0
0.1 19.09999999999863 0.0
0.1 19.19999999999878 0.0
0.1 19.29999999999894 0.0
0.1 19.39999999999909 0.0
0.1 19.49999999999924 0.0
0.1 19.59999999999939 0.0
0.1 19.69999999999955 0.0
0.1 19.7999999999997 0.0
0.1 19.89999999999985 0.0
0.0 19.9 0.0
0.0 19.8 0.0
0.0 19.7 0.0
0.0 19.6 0.0
0.0 19.5 0.0
0.0 19.4 0.0
0.0 19.3 0.0
0.0 19.2 0.0
0.0 19.1 0.0
0.0 19.0 0.0
0.0 18.9 0.0
0.0 18.8 0.0
0.0 18.7 0.0
0.0 18.6 0.0
0.0 18.5 0.0
0.0 18.4 0.0
0.0 18.3 0.0
0.0 18.2 0.0
0.0 18.1 0.0
0.0 18.0 0.0
0.0 17.9 0.0
0.0 17.8 0.0
0.0 17.7 0.0
0.0 17.6 0.0
0.0 17.5 0.0
0.0 17.4 0.0
0.0 17.3 0.0
0.0 17.2 0.0
0.0 17.09999999999999 0.0
0.0 17.0 0.0
0.0 16.9 0.0
0.0 16.8 0.0
0.0 16.7 0.0
0.0 16.59999999999999 0.0
0.0 16.49999999999999 0.0
0.0 16.4 0.0
0.0 16.29999999999999 0.0
0.0 16.2 0.0
0.0 16.09999999999999 0.0
0.0 15.99999999999999 0.0
0.0 15.89999999999999 0.0
0.0 15.79999999999999 0.0
0.0 15.69999999999999 0.0
0.0 15.59999999999999 0.0
0.0 15.49999999999999 0.0
0.0 15.39999999999999 0.0
0.0 15.29999999999999 0.0
0.0 15.19999999999999 0.0
0.0 15.09999999999999 0.0
0.0 14.99999999999999 0.0
0.0 14.89999999999999 0.0
0.0 14.79999999999999 0.0
0.0 14.69999999999999 0.0
0.0 14.59999999999999 0.0
0.0 14.49999999999999 0.0
0.0 14.39999999999999 0.0
0.0 14.29999999999999 0.0
0.0 14.19999999999999 0.0
0.0 14.09999999999999 0.0
0.0 13.99999999999999 0.0
0.0 13.89999999999999 0.0
0.0 13.79999999999999 0.0
0.0 13.69999999999999 0.0
0.0 13.59999999999999 0.0
0.0 13.49999999999999 0.0
0.0 13.39999999999999 0.0
0.0 13.29999999999999 0.0
0.0 13.19999999999999 0.0
0.0 13.09999999999999 0.0
0.0 12.99999999999999 0.0
0.0 12.89999999999999 0.0
0.0 12.79999999999999 0.0
0.0 12.69999999999999 0.0
0.0 12.59999999999999 0.0
0.0 12.49999999999999 0.0
0.0 12.39999999999999 0.0
0.0 12.29999999999999 0.0
0.0 12.19999999999999 0.0
0.0 12.09999999999999 0.0
0.0 11.99999999999999 0.0
0.0 11.89999999999999 0.0
0.0 11.79999999999999 0.0
0.0 11.69999999999999 0.0
0.0 11.59999999999999 0.0
0.0 11.49999999999999 0.0
0.0 11.39999999999999 0.0
0.0 11.29999999999999 0.0
0.0 11.19999999999999 0.0
0.0 11.09999999999999 0.0
0.0 10.99999999999999 0.0
0.0 10.89999999999999 0.0
0.0 10.79999999999999 0.0
0.0 10.69999999999999 0.0
0.0 10.59999999999999 0.0
0.0 10.49999999999999 0.0
0.0 10.39999999999999 0.0
0.0 10.29999999999999 0.0
0.0 10.19999999999999 0.0
0.0 10.09999999999999 0.0
0.0 9.999999999999993 0.0
0.0 9.899999999999993 0.0
0.0 9.799999999999994 0.0
0.0 9.699999999999992 0.0
0.0 9.599999999999993 0.0
0.0 9.499999999999993 0.0
0.0 9.399999999999993 0.0
0.0 9.299999999999995 0.0
0.0 9.199999999999996 0.0
0.0 9.099999999999994 0.0
0.0 8.999999999999995 0.0
0.0 8.899999999999995 0.0
0.0 8.799999999999994 0.0
0.0 8.699999999999994 0.0
0.0 8.599999999999994 0.0
0.0 8.499999999999995 0.0
0.0 8.399999999999995 0.0
0.0 8.299999999999994 0.0
0.0 8.199999999999994 0.0
0.0 8.099999999999994 0.0
0.0 7.999999999999993 0.0
0.0 7.899999999999995 0.0
0.0 7.799999999999995 0.0
0.0 7.699999999999996 0.0
0.0 7.599999999999996 0.0
0.0 7.499999999999996 0.0
0.0 7.399999999999995 0.0
0.0 7.299999999999995 0.0
0.0 7.199999999999996 0.0
0.0 7.099999999999994 0.0
0.0 6.999999999999995 0.0
0.0 6.899999999999995 0.0
0.0 6.799999999999995 0.0
0.0 6.699999999999996 0.0
0.0 6.599999999999994 0.0
0.0 6.499999999999995 0.0
0.0 6.399999999999997 0.0
0.0 6.299999999999997 0.0
0.0 6.199999999999996 0.0
0.0 6.099999999999996 0.0
0.0 5.999999999999996 0.0
0.0 5.899999999999997 0.0
0.0 5.799999999999997 0.0
0.0 5.699999999999996 0.0
0.0 5.599999999999996 0.0
0.0 5.499999999999996 0.0
0.0 5.399999999999995 0.0
0.0 5.299999999999995 0.0
0.0 5.199999999999996 0.0
0.0 5.099999999999996 0.0
0.0 4.999999999999998 0.0
0.0 4.899999999999999 0.0
0.0 4.799999999999997 0.0
0.0 4.699999999999998 0.0
0.0 4.599999999999998 0.0
0.0 4.499999999999996 0.0
0.0 4.399999999999997 0.0
0.0 4.299999999999997 0.0
0.0 4.199999999999998 0.0
0.0 4.099999999999998 0.0
0.0 3.999999999999996 0.0
0.0 3.899999999999999 0.0
0.0 3.799999999999997 0.0
0.0 3.699999999999996 0.0
0.0 3.599999999999998 0.0
0.0 3.5 0.0
0.0 3.399999999999999 0.0
0.0 3.299999999999997 0.0
0.0 3.199999999999999 0.0
0.0 3.099999999999998 0.0
0.0 3.0 0.0
0.0 2.899999999999999 0.0
0.0 2.799999999999997 0.0
0.0 2.699999999999999 0.0
0.0 2.599999999999998 0.0
0.0 2.499999999999996 0.0
0.0 2.399999999999999 0.0
0.0 2.299999999999997 0.0
0.0 2.199999999999999 0.0
0.0 2.100000000000001 0.0
0.0 2.0 0.0
0.0 1.899999999999999 0.0
0.0 1.800000000000001 0.0
0.0 1.699999999999999 0.0
0.0 1.599999999999998 0.0
0.0 1.5 0.0
0.0 1.399999999999999 0.0
0.0 1.299999999999997 0.0
0.0 1.199999999999999 0.0
0.0 1.099999999999998 0.0
0.0 1.0 0.0
0.0 0.8999999999999986 0.0
0.0 0.8000000000000007 0.0
0.0 0.6999999999999993 0.0
0.0 0.6000000000000014 0.0
0.0 0.5 0.0
0.0 0.3999999999999986 0.0
0.0 0.3000000000000007 0.0
0.0 0.1999999999999993 0.0
[...]
POINT_DATA 804
VECTORS displacement double
0.0 0.0 0.0
0.0 0.0 0.0
0.0 -0.001787599603042155 0.0
0.0 -0.0017875996030421335 0.0
0.0 0.0 0.0
0.0 0.0 0.0
0.0 -0.0017875996030421572 0.0
0.0 -0.0017875996030421342 0.0
0.0 2.3977262364357204e-113 0.0
0.0 -1.4161701176277938e-112 0.0
0.0 8.078965598149152e-112 0.0
0.0 -4.5801441691363705e-111 0.0
0.0 2.5843061171529526e-110 0.0
0.0 -1.4521557429201247e-109 0.0
0.0 8.130105628714618e-109 0.0
0.0 -4.5369880156009605e-108 0.0
0.0 2.524496831493419e-107 0.0
0.0 -1.401015230184678e-106 0.0
0.0 7.756725935456816e-106 0.0
0.0 -4.2852181818384e-105 0.0
0.0 2.3626778063741085e-104 0.0
0.0 -1.3002888169528669e-103 0.0
0.0 7.143900655836426e-103 0.0
0.0 -3.918668184891517e-102 0.0
0.0 2.146287122782031e-101 0.0
0.0 -1.173854248523288e-100 0.0
0.0 6.411222151379735e-100 0.0
0.0 -3.4969054379706428e-99 0.0
0.0 1.904814460082866e-98 0.0
0.0 -1.0362154180057052e-97 0.0
0.0 5.629538042375178e-97 0.0
0.0 -3.054301329964344e-96 0.0
0.0 1.6548296026578138e-95 0.0
0.0 -8.953196736307421e-95 0.0
0.0 4.836859473522684e-94 0.0
0.0 -2.609052679509481e-93 0.0
0.0 1.4050990100423934e-92 0.0
0.0 -7.554472366212044e-92 0.0
0.0 4.054537130696626e-91 0.0
0.0 -2.1721215365766625e-90 0.0
0.0 1.1614429284144847e-89 0.0
0.0 -6.197943836577016e-89 0.0
0.0 3.3006440962882135e-88 0.0
0.0 -1.753948020045138e-87 0.0
0.0 9.299674454536067e-87 0.0
0.0 -4.919465896577102e-86 0.0
0.0 2.5961681692244113e-85 0.0
0.0 -1.3667050419844027e-84 0.0
0.0 7.176233583658473e-84 0.0
0.0 -3.757689976965687e-83 0.0
0.0 1.96146295364126e-82 0.0
0.0 -1.0196036709785224e-81 0.0
0.0 5.262570348640153e-81 0.0
0.0 -2.6732574847969362e-80 0.0
0.0 1.2996789993575248e-79 0.0
0.0 -5.46101345917007e-79 0.0
0.0 9.552227456454219e-79 0.0
0.0 2.244846283951473e-77 0.0
0.0 -5.124708319822177e-76 0.0
0.0 8.301455949278238e-75 0.0
0.0 -1.2213742633415238e-73 0.0
0.0 1.7212467854366324e-72 0.0
0.0 -2.3593379332275455e-71 0.0
0.0 3.1592186433942805e-70 0.0
0.0 -4.1352902377583857e-69 0.0
0.0 5.2876642778861186e-68 0.0
0.0 -6.595870513146097e-67 0.0
0.0 8.012499587017586e-66 0.0
0.0 -9.458343310164527e-65 0.0
0.0 1.082101843710701e-63 0.0
0.0 -1.1959236659832475e-62 0.0
0.0 1.2714569796456389e-61 0.0
0.0 -1.2931537173076187e-60 0.0
0.0 1.2485016147148493e-59 0.0
0.0 -1.1311488621712135e-58 0.0
0.0 9.437962528343355e-58 0.0
0.0 -7.000374944539548e-57 0.0
0.0 4.2429437114474215e-56 0.0
0.0 -1.4922519477444444e-55 0.0
0.0 -8.947594805011802e-55 0.0
0.0 2.6018719356213065e-53 0.0
0.0 -3.4283568654908954e-52 0.0
0.0 3.346212285138673e-51 0.0
0.0 -2.5186603998054694e-50 0.0
0.0 1.2667090970703588e-49 0.0
0.0 1.397977632093233e-50 0.0
0.0 -9.649878003461357e-48 0.0
0.0 1.3701482770328725e-46 0.0
0.0 -1.2149678552247697e-45 0.0
0.0 6.74830697847326e-45 0.0
0.0 -3.315410773855648e-45 0.0
0.0 -4.389033132772257e-43 0.0
0.0 5.900606838490744e-42 0.0
0.0 -4.360762026521795e-41 0.0
0.0 1.2651850868516294e-40 0.0
0.0 1.485106612286275e-39 0.0
0.0 -2.600961968350369e-38 0.0
0.0 1.9586836072852487e-37 0.0
0.0 -4.293107249704105e-37 0.0
0.0 -8.338061560132852e-36 0.0
0.0 1.1483432175683743e-34 0.0
0.0 -6.171319531464225e-34 0.0
0.0 -1.3357918646845661e-33 0.0
0.0 5.146408876012378e-32 0.0
0.0 -3.805333501274019e-31 0.0
0.0 1.238041424289937e-31 0.0
0.0 2.207981492177612e-29 0.0
0.0 -1.8172270035663174e-28 0.0
0.0 6.060913307335778e-29 0.0
0.0 1.0141600612991468e-26 0.0
0.0 -7.151693140378128e-26 0.0
0.0 -1.216047233777344e-25 0.0
0.0 4.6833399871275355e-24 0.0
0.0 -1.8891597545810267e-23 0.0
0.0 -1.5632913077039558e-22 0.0
0.0 1.708061637983143e-21 0.0
0.0 1.0506489486516703e-21 0.0
0.0 -9.027481845654551e-20 0.0
0.0 2.3390709895509715e-19 0.0
0.0 3.75127995933715e-18 0.0
0.0 -1.9279935876931203e-17 0.0
0.0 -1.4135791109131935e-16 0.0
0.0 1.0334457572922547e-15 0.0
0.0 5.572556107422364e-15 0.0
0.0 -4.46119166789741e-14 0.0
0.0 -2.528312860471479e-13 0.0
0.0 1.529043098993605e-12 0.0
0.0 1.2346686330454628e-11 0.0
0.0 -2.983967027385624e-11 0.0
0.0 -5.318747100845914e-10 0.0
0.0 -8.142104122751788e-10 0.0
0.0 1.4336840787169284e-08 0.0
0.0 9.448485737479021e-08 0.0
0.0 8.419552126081679e-08 0.0
0.0 -2.1752054588609857e-06 0.0
0.0 -1.7221508579473182e-05 0.0
0.0 -7.665488525975935e-05 0.0
0.0 -0.00024188162948340548 0.0
0.0 -0.0005790827518458314 0.0
0.0 -0.001080461622140934 0.0
0.0 -0.0015916386489516886 0.0
0.0 -0.001881371676478056 0.0
0.0 -0.0018699566156248676 0.0
0.0 -0.0017475356793567249 0.0
0.0 -0.0017403694439973138 0.0
0.0 -0.001816099473615841 0.0
0.0 -0.0018137803644682788 0.0
0.0 -0.0017627384902492002 0.0
0.0 -0.0017805186630027042 0.0
0.0 -0.0018102670946288347 0.0
0.0 -0.001781931719624253 0.0
0.0 -0.0017760427468395898 0.0
0.0 -0.001801972609131131 0.0
0.0 -0.0017873049622381743 0.0
0.0 -0.001778514864562844 0.0
0.0 -0.001798100668654509 0.0
0.0 -0.0017869131918670817 0.0
0.0 -0.001781860741332675 0.0
0.0 -0.001796488684028647 0.0
0.0 -0.0017846609518480142 0.0
0.0 -0.001785828879181658 0.0
0.0 -0.0017945273587311051 0.0
0.0 -0.0017827914282529634 0.0
0.0 -0.001790233071771869 0.0
0.0 -0.0017906574183993045 0.0
0.0 -0.001783591341216269 0.0
0.0 -0.0017929901486098646 0.0
0.0 -0.0017859091106166788 0.0
0.0 -0.0017878414703779775 0.0
0.0 -0.0017912735778201408 0.0
0.0 -0.0017843913533956044 0.0
0.0 -0.001791858075799758 0.0
0.0 -0.001786408828194349 0.0
0.0 -0.001788307813361999 0.0
0.0 -0.0017901742530145883 0.0
0.0 -0.0017854265177970315 0.0
0.0 -0.001791548822536836 0.0
0.0 -0.0017856616130852742 0.0
0.0 -0.0017900099101364213 0.0
0.0 -0.0017879712605050743 0.0
0.0 -0.0017875092123924906 0.0
0.0 -0.00179017213101673 0.0
0.0 -0.0017859362810705706 0.0
0.0 -0.0017909691209803123 0.0
0.0 -0.0017859063931354106 0.0
0.0 -0.0017903526800567859 0.0
0.0 -0.0017869867474613155 0.0
0.0 -0.0017890080132349387 0.0
0.0 -0.0017884118273032551 0.0
0.0 -0.0017876508586249095 0.0
0.0 -0.0017895965946179025 0.0
0.0 -0.0017866994705106442 0.0
0.0 -0.001790291176240972 0.0
0.0 -0.0017862561734505618 0.0
0.0 -0.001790508506080529 0.0
0.0 -0.001786228029864851 0.0
0.0 -0.001790388960843123 0.0
0.0 -0.0017864540020549168 0.0
0.0 -0.001790094366085344 0.0
0.0 -0.001786784657061357 0.0
0.0 -0.0017897543049856905 0.0
0.0 -0.0017871132820417557 0.0
0.0 -0.0017894527283423862 0.0
0.0 -0.0017873766089949192 0.0
0.0 -0.0017892353397555114 0.0
0.0 -0.0017875430344005197 0.0
0.0 -0.001789122973574303 0.0
0.0 -0.001789122973574303 0.0
0.0 -0.0017875430344005121 0.0
0.0 -0.0017892353397555227 0.0
0.0 -0.0017873766089949168 0.0
0.0 -0.0017894527283423924 0.0
0.0 -0.0017871132820417533 0.0
0.0 -0.0017897543049857135 0.0
0.0 -0.001786784657061345 0.0
0.0 -0.001790094366085353 0.0
0.0 -0.0017864540020549003 0.0
0.0 -0.0017903889608431218 0.0
0.0 -0.0017862280298648657 0.0
0.0 -0.0017905085060805257 0.0
0.0 -0.0017862561734505716 0.0
0.0 -0.001790291176240932 0.0
0.0 -0.0017866994705106908 0.0
0.0 -0.0017895965946178498 0.0
0.0 -0.0017876508586249459 0.0
0.0 -0.0017884118273031894 0.0
0.0 -0.001789008013234999 0.0
0.0 -0.001786986747461267 0.0
0.0 -0.0017903526800568338 0.0
0.0 -0.0017859063931353893 0.0
0.0 -0.0017909691209802847 0.0
0.0 -0.0017859362810706172 0.0
0.0 -0.0017901721310166355 0.0
0.0 -0.0017875092123926164 0.0
0.0 -0.001787971260504938 0.0
0.0 -0.0017900099101365533 0.0
0.0 -0.0017856616130851764 0.0
0.0 -0.0017915488225368206 0.0
0.0 -0.0017854265177971393 0.0
0.0 -0.0017901742530143827 0.0
0.0 -0.0017883078133622567 0.0
0.0 -0.0017864088281941259 0.0
0.0 -0.0017918580757998982 0.0
0.0 -0.0017843913533956777 0.0
0.0 -0.001791273577819894 0.0
0.0 -0.0017878414703783642 0.0
0.0 -0.001785909110616303 0.0
0.0 -0.00179299014861001 0.0
0.0 -0.001783591341216475 0.0
0.0 -0.0017906574183987787 0.0
0.0 -0.0017902330717724675 0.0
0.0 -0.0017827914282526594 0.0
0.0 -0.001794527358730819 0.0
0.0 -0.0017858288791824536 0.0
0.0 -0.0017846609518471833 0.0
0.0 -0.0017964886840288064 0.0
0.0 -0.0017818607413335047 0.0
0.0 -0.001786913191865777 0.0
0.0 -0.0017981006686550965 0.0
0.0 -0.0017785148645638068 0.0
0.0 -0.001787304962236311 0.0
0.0 -0.0018019726091318851 0.0
0.0 -0.0017760427468413082 0.0
0.0 -0.00178193171962163 0.0
0.0 -0.0018102670946286575 0.0
0.0 -0.001780518663006485 0.0
0.0 -0.0017627384902470543 0.0
0.0 -0.001813780364463917 0.0
0.0 -0.0018160994736207128 0.0
0.0 -0.0017403694440030185 0.0
0.0 -0.0017475356793485366 0.0
0.0 -0.0018699566156138412 0.0
0.0 -0.0018813716764908676 0.0
0.0 -0.00159163864899566 0.0
0.0 -0.0010804616221970432 0.0
0.0 -0.0005790827518911672 0.0
0.0 -0.0002418816295093549 0.0
0.0 -7.665488527058998e-05 0.0
0.0 -1.7221508582706622e-05 0.0
0.0 -2.1752054594791593e-06 0.0
0.0 8.419552122045828e-08 0.0
0.0 9.448485738960244e-08 0.0
0.0 1.4336840791624988e-08 0.0
0.0 -8.142104120571466e-10 0.0
0.0 -5.318747102026577e-10 0.0
0.0 -2.9839670293586485e-11 0.0
0.0 1.2346686332330302e-11 0.0
0.0 1.5290430996840944e-12 0.0
0.0 -2.528312860677394e-13 0.0
0.0 -4.461191669807426e-14 0.0
0.0 5.572556107704383e-15 0.0
0.0 1.033445757771175e-15 0.0
0.0 -1.413579111049548e-16 0.0
0.0 -1.9279935887912263e-17 0.0
0.0 3.751279960060608e-18 0.0
0.0 2.339070991671206e-19 0.0
0.0 -9.027481848452532e-20 0.0
0.0 1.0506489459629219e-21 0.0
0.0 1.7080616387695185e-21 0.0
0.0 -1.5632913078015324e-22 0.0
0.0 -1.8891597560728096e-23 0.0
0.0 4.683339988764735e-24 0.0
0.0 -1.2160472325869614e-25 0.0
0.0 -7.15169314479121e-26 0.0
0.0 1.0141600615864184e-26 0.0
0.0 6.060913353584205e-29 0.0
0.0 -1.8172270046698758e-28 0.0
0.0 2.207981492804833e-29 0.0
0.0 1.2380414350874905e-31 0.0
0.0 -3.805333503875687e-31 0.0
0.0 5.146408877944733e-32 0.0
0.0 -1.335791863192051e-33 0.0
0.0 -6.171319536962846e-34 0.0
0.0 1.1483432181883943e-34 0.0
0.0 -8.33806156122335e-36 0.0
0.0 -4.2931072577613365e-37 0.0
0.0 1.958683608793996e-37 0.0
0.0 -2.600961969642752e-38 0.0
0.0 1.4851066121589194e-39 0.0
0.0 1.2651850891240029e-40 0.0
0.0 -4.360762030534712e-41 0.0
0.0 5.900606842625973e-42 0.0
0.0 -4.389033134868482e-43 0.0
0.0 -3.3154107882274905e-45 0.0
0.0 6.748306983027204e-45 0.0
0.0 -1.2149678556856769e-45 0.0
0.0 1.3701482769420513e-46 0.0
0.0 -9.64987798971174e-48 0.0
0.0 1.3979772829133984e-50 0.0
0.0 1.2667091035937781e-49 0.0
0.0 -2.5186604104242983e-50 0.0
0.0 3.346212301194958e-51 0.0
0.0 -3.428356888647595e-52 0.0
0.0 2.601871967431819e-53 0.0
0.0 -8.947595206076941e-55 0.0
0.0 -1.4922519068059057e-55 0.0
0.0 4.242943697297394e-56 0.0
0.0 -7.000375035558235e-57 0.0
0.0 9.437962922575631e-58 0.0
0.0 -1.1311489787844907e-58 0.0
0.0 1.248501914881916e-59 0.0
0.0 -1.2931544354857086e-60 0.0
0.0 1.2714586216891109e-61 0.0
0.0 -1.1959273054186373e-62 0.0
0.0 1.0821097288833996e-63 0.0
0.0 -9.458511197975846e-65 0.0
0.0 8.01285212515809e-66 0.0
0.0 -6.596602426204259e-67 0.0
0.0 5.289169393878734e-68 0.0
0.0 -4.1383601703024376e-69 0.0
0.0 3.1654357584099555e-70 0.0
0.0 -2.3718492799726857e-71 0.0
0.0 1.746282257509186e-72 0.0
0.0 -1.2712135057068572e-73 0.0
0.0 9.288956029969264e-75 0.0
0.0 -7.072789817202743e-76 0.0
0.0 6.0723047077793754e-77 0.0
0.0 -6.536062175599133e-78 0.0
0.0 9.14856172115326e-79 0.0
0.0 -1.539770528442117e-79 0.0
0.0 2.8274069383078717e-80 0.0
0.0 -5.360277252345252e-81 0.0
0.0 1.0257328707033418e-81 0.0
0.0 -1.9652945895046785e-82 0.0
0.0 3.760127224995805e-83 0.0
0.0 -7.17790574299203e-84 0.0
0.0 1.3668449521080408e-84 0.0
0.0 -2.596329303830108e-85 0.0
0.0 4.919711679320876e-86 0.0
0.0 -9.300105784573145e-87 0.0
0.0 1.7540272081690205e-87 0.0
0.0 -3.3007904577115525e-88 0.0
0.0 6.198212726202878e-89 0.0
0.0 -1.1614918373054203e-89 0.0
0.0 2.1722095110136743e-90 0.0
0.0 -4.054693567374426e-91 0.0
0.0 7.554747349927407e-92 0.0
0.0 -1.4051467930717495e-92 0.0
0.0 2.6091347660673873e-93 0.0
0.0 -4.83699890469182e-94 0.0
0.0 8.953430961430266e-95 0.0
0.0 -1.6548685297075414e-95 0.0
0.0 3.0543653727465334e-96 0.0
0.0 -5.62964244073954e-97 0.0
0.0 1.0362323045987098e-97 0.0
0.0 -1.9048416205933455e-98 0.0
0.0 3.4969490097721143e-99 0.0
0.0 -6.41129216119948e-100 0.0
0.0 1.173865575997412e-100 0.0
0.0 -2.1463056957161978e-101 0.0
0.0 3.9186992489324356e-102 0.0
0.0 -7.143953951594531e-103 0.0
0.0 1.300298226563017e-103 0.0
0.0 -2.362694899886713e-104 0.0
0.0 4.285250022385292e-105 0.0
0.0 -7.756786405886992e-106 0.0
0.0 1.4010268626605917e-106 0.0
0.0 -2.5245193565691492e-107 0.0
0.0 4.537031693362423e-108 0.0
0.0 -8.130190100627668e-109 0.0
0.0 1.4521719895574877e-109 0.0
0.0 -2.584337130398071e-110 0.0
0.0 4.5802028490828576e-111 0.0
0.0 -8.0790755522439605e-112 0.0
0.0 1.416190491233948e-112 0.0
0.0 -2.397762449308605e-113 0.0
0.0 -2.4798642120923816e-113 0.0
0.0 1.4568951780874413e-112 0.0
0.0 -8.268550498772194e-112 0.0
0.0 4.665712061945839e-111 0.0
0.0 -2.6214961978468708e-110 0.0
0.0 1.4675070481029465e-109 0.0
0.0 -8.188735476354053e-109 0.0
0.0 4.5565053145670316e-108 0.0
0.0 -2.529126248947003e-107 0.0
0.0 1.4007302309458334e-106 0.0
0.0 -7.742573199397659e-106 0.0
0.0 4.272150428973799e-105 0.0
0.0 -2.3534545063863384e-104 0.0
0.0 1.294543174755456e-103 0.0
0.0 -7.110814677986797e-103 0.0
0.0 3.9007082852900566e-102 0.0
0.0 -2.1370167730410792e-101 0.0
0.0 1.1692917008992302e-100 0.0
0.0 -6.38985025603908e-100 0.0
0.0 3.4874434904824415e-99 0.0
0.0 -1.9009148698345098e-98 0.0
0.0 1.0347679491850688e-97 0.0
0.0 -5.625101324500178e-97 0.0
0.0 3.0535452395556616e-96 0.0
0.0 -1.6551697292090283e-95 0.0
0.0 8.958205188680623e-95 0.0
0.0 -4.840775616461066e-94 0.0
0.0 2.611553676264174e-93 0.0
0.0 -1.406524267127865e-92 0.0
0.0 7.561948883281041e-92 0.0
0.0 -4.0581886759278615e-91 0.0
0.0 2.1737831934969685e-90 0.0
0.0 -1.1621411347744468e-89 0.0
0.0 6.200587728731004e-89 0.0
0.0 -3.3014917893808626e-88 0.0
0.0 1.754131805873641e-87 0.0
0.0 -9.299491520421078e-87 0.0
0.0 4.918929506692524e-86 0.0
0.0 -2.595765079084086e-85 0.0
0.0 1.3665133147580395e-84 0.0
0.0 -7.176186628889665e-84 0.0
0.0 3.7593194252440265e-83 0.0
0.0 -1.9649465081439035e-82 0.0
0.0 1.0255937422373299e-81 0.0
0.0 -5.359742555921375e-81 0.0
0.0 2.8271863810066864e-80 0.0
0.0 -1.5396530095665337e-79 0.0
0.0 9.147717874714819e-79 0.0
0.0 -6.535370949490918e-78 0.0
0.0 6.071739547297269e-77 0.0
0.0 -7.072348274840747e-76 0.0
0.0 9.288627769283892e-75 0.0
0.0 -1.2711901265677994e-73 0.0
0.0 1.7462661724605327e-72 0.0
0.0 -2.371838509444824e-71 0.0
0.0 3.165428697177436e-70 0.0
0.0 -4.138355617127072e-69 0.0
0.0 5.289166497240148e-68 0.0
0.0 -6.596600604676445e-67 0.0
0.0 8.012850991966996e-66 0.0
0.0 -9.458510500501884e-65 0.0
0.0 1.0821096864250025e-63 0.0
0.0 -1.1959272798632952e-62 0.0
0.0 1.2714586064764784e-61 0.0
0.0 -1.2931544265171647e-60 0.0
0.0 1.2485019096327228e-59 0.0
0.0 -1.1311489757283395e-58 0.0
0.0 9.437962904941426e-58 0.0
0.0 -7.000375025691637e-57 0.0
0.0 4.242943692312007e-56 0.0
0.0 -1.49225190507305e-55 0.0
0.0 -8.947595200981806e-55 0.0
0.0 2.6018719654438613e-53 0.0
0.0 -3.428356885877185e-52 0.0
0.0 3.346212298306316e-51 0.0
0.0 -2.518660407996196e-50 0.0
0.0 1.2667091020283101e-49 0.0
0.0 1.3979773382085447e-50 0.0
0.0 -9.649877986334304e-48 0.0
0.0 1.3701482760489736e-46 0.0
0.0 -1.2149678546665738e-45 0.0
0.0 6.748306975342344e-45 0.0
0.0 -3.3154107564797096e-45 0.0
0.0 -4.3890331337268856e-43 0.0
0.0 5.900606839010072e-42 0.0
0.0 -4.360762026801511e-41 0.0
0.0 1.2651850870007375e-40 0.0
0.0 1.4851066122076494e-39 0.0
0.0 -2.600961968309466e-38 0.0
0.0 1.9586836072642257e-37 0.0
0.0 -4.2931072495977835e-37 0.0
0.0 -8.338061560185601e-36 0.0
0.0 1.1483432175709422e-34 0.0
0.0 -6.171319531476464e-34 0.0
0.0 -1.3357918646786585e-33 0.0
0.0 5.146408876009554e-32 0.0
0.0 -3.805333501272591e-31 0.0
0.0 1.23804142428243e-31 0.0
0.0 2.2079814921780285e-29 0.0
0.0 -1.8172270035665002e-28 0.0
0.0 6.060913307345105e-29 0.0
0.0 1.0141600612991488e-26 0.0
0.0 -7.151693140378339e-26 0.0
0.0 -1.2160472337771827e-25 0.0
0.0 4.683339987127703e-24 0.0
0.0 -1.8891597545810688e-23 0.0
0.0 -1.563291307704003e-22 0.0
0.0 1.7080616379831744e-21 0.0
0.0 1.0506489486514098e-21 0.0
0.0 -9.027481845653964e-20 0.0
0.0 2.3390709895504395e-19 0.0
0.0 3.751279959337654e-18 0.0
0.0 -1.9279935876934284e-17 0.0
0.0 -1.4135791109130192e-16 0.0
0.0 1.0334457572922127e-15 0.0
0.0 5.572556107422674e-15 0.0
0.0 -4.461191667897347e-14 0.0
0.0 -2.528312860471666e-13 0.0
0.0 1.5290430989937294e-12 0.0
0.0 1.2346686330454623e-11 0.0
0.0 -2.98396702738542e-11 0.0
0.0 -5.31874710084564e-10 0.0
0.0 -8.142104122753839e-10 0.0
0.0 1.4336840787169774e-08 0.0
0.0 9.448485737478869e-08 0.0
0.0 8.419552126082865e-08 0.0
0.0 -2.1752054588609015e-06 0.0
0.0 -1.7221508579473538e-05 0.0
0.0 -7.665488525975988e-05 0.0
0.0 -0.00024188162948341138 0.0
0.0 -0.0005790827518458345 0.0
0.0 -0.0010804616221409304 0.0
0.0 -0.0015916386489516882 0.0
0.0 -0.001881371676478049 0.0
0.0 -0.0018699566156248687 0.0
0.0 -0.001747535679356725 0.0
0.0 -0.0017403694439973142 0.0
0.0 -0.001816099473615822 0.0
0.0 -0.001813780364468281 0.0
0.0 -0.0017627384902492115 0.0
0.0 -0.0017805186630027049 0.0
0.0 -0.0018102670946288303 0.0
0.0 -0.0017819317196242517 0.0
0.0 -0.0017760427468395835 0.0
0.0 -0.0018019726091311227 0.0
0.0 -0.0017873049622381804 0.0
0.0 -0.0017785148645628548 0.0
0.0 -0.0017981006686545059 0.0
0.0 -0.0017869131918670732 0.0
0.0 -0.001781860741332673 0.0
0.0 -0.0017964886840286403 0.0
0.0 -0.0017846609518480144 0.0
0.0 -0.001785828879181663 0.0
0.0 -0.0017945273587311043 0.0
0.0 -0.0017827914282529573 0.0
0.0 -0.0017902330717718571 0.0
0.0 -0.0017906574183992922 0.0
0.0 -0.0017835913412162752 0.0
0.0 -0.001792990148609863 0.0
0.0 -0.0017859091106166855 0.0
0.0 -0.0017878414703779693 0.0
0.0 -0.0017912735778201636 0.0
0.0 -0.0017843913533956155 0.0
0.0 -0.0017918580757997709 0.0
0.0 -0.0017864088281943729 0.0
0.0 -0.0017883078133620065 0.0
0.0 -0.0017901742530145915 0.0
0.0 -0.0017854265177970443 0.0
0.0 -0.001791548822536816 0.0
0.0 -0.0017856616130852555 0.0
0.0 -0.001790009910136427 0.0
0.0 -0.0017879712605050914 0.0
0.0 -0.0017875092123924897 0.0
0.0 -0.0017901721310167413 0.0
0.0 -0.0017859362810705645 0.0
0.0 -0.0017909691209803055 0.0
0.0 -0.001785906393135401 0.0
0.0 -0.0017903526800567907 0.0
0.0 -0.0017869867474613135 0.0
0.0 -0.0017890080132349443 0.0
0.0 -0.0017884118273032484 0.0
0.0 -0.0017876508586248986 0.0
0.0 -0.0017895965946179105 0.0
0.0 -0.0017866994705106436 0.0
0.0 -0.0017902911762409655 0.0
0.0 -0.0017862561734505607 0.0
0.0 -0.001790508506080541 0.0
0.0 -0.0017862280298648467 0.0
0.0 -0.0017903889608431192 0.0
0.0 -0.0017864540020548884 0.0
0.0 -0.0017900943660853566 0.0
0.0 -0.0017867846570613528 0.0
0.0 -0.0017897543049857113 0.0
0.0 -0.0017871132820417533 0.0
0.0 -0.0017894527283423827 0.0
0.0 -0.0017873766089949229 0.0
0.0 -0.0017892353397555064 0.0
0.0 -0.0017875430344005297 0.0
0.0 -0.001789122973574308 0.0
0.0 -0.0017891229735743043 0.0
0.0 -0.0017875430344005117 0.0
0.0 -0.001789235339755525 0.0
0.0 -0.0017873766089949179 0.0
0.0 -0.0017894527283423985 0.0
0.0 -0.0017871132820417553 0.0
0.0 -0.0017897543049857085 0.0
0.0 -0.0017867846570613648 0.0
0.0 -0.001790094366085352 0.0
0.0 -0.0017864540020549134 0.0
0.0 -0.0017903889608431149 0.0
0.0 -0.0017862280298648493 0.0
0.0 -0.0017905085060805131 0.0
0.0 -0.0017862561734505811 0.0
0.0 -0.001790291176240935 0.0
0.0 -0.0017866994705106848 0.0
0.0 -0.001789596594617855 0.0
0.0 -0.0017876508586249572 0.0
0.0 -0.0017884118273031884 0.0
0.0 -0.0017890080132349963 0.0
0.0 -0.0017869867474612693 0.0
0.0 -0.0017903526800568188 0.0
0.0 -0.0017859063931353924 0.0
0.0 -0.0017909691209802815 0.0
0.0 -0.0017859362810706179 0.0
0.0 -0.0017901721310166411 0.0
0.0 -0.0017875092123926183 0.0
0.0 -0.0017879712605049362 0.0
0.0 -0.001790009910136551 0.0
0.0 -0.001785661613085172 0.0
0.0 -0.0017915488225368373 0.0
0.0 -0.0017854265177971295 0.0
0.0 -0.001790174253014393 0.0
0.0 -0.0017883078133622671 0.0
0.0 -0.0017864088281941192 0.0
0.0 -0.0017918580757998943 0.0
0.0 -0.001784391353395682 0.0
0.0 -0.0017912735778198886 0.0
0.0 -0.001787841470378373 0.0
0.0 -0.0017859091106163022 0.0
0.0 -0.0017929901486100107 0.0
0.0 -0.0017835913412164747 0.0