# vtk DataFile Version 2.0
data_612
ASCII
DATASET UNSTRUCTURED_GRID
POINTS 804 float
0.0 0.0 0.0
0.1 0.0 0.0
0.1 20.0 0.0
0.0 20.0 0.0
0.0 0.0 -0.1
0.1 0.0 -0.1
0.1 20.0 -0.1
0.0 20.0 -0.1
0.1 0.09999999999992462 0.0
0.1 0.1999999999998517 0.0
0.1 0.2999999999997818 0.0
0.1 0.399999999999712 0.0
0.1 0.4999999999996377 0.0
0.1 0.5999999999995541 0.0
0.1 0.6999999999994495 0.0
0.1 0.7999999999993355 0.0
0.1 0.8999999999992101 0.0
0.1 0.999999999999102 0.0
0.1 1.099999999999006 0.0
0.1 1.199999999998936 0.0
0.1 1.299999999998867 0.0
0.1 1.399999999998797 0.0
0.1 1.499999999998727 0.0
0.1 1.599999999998657 0.0
0.1 1.699999999998587 0.0
0.1 1.799999999998517 0.0
0.1 1.899999999998447 0.0
0.1 1.999999999998378 0.0
0.1 2.099999999998308 0.0
0.1 2.199999999998238 0.0
0.1 2.299999999998168 0.0
0.1 2.399999999998067 0.0
0.1 2.499999999997942 0.0
0.1 2.599999999997706 0.0
0.1 2.699999999997444 0.0
0.1 2.799999999997153 0.0
0.1 2.899999999996861 0.0
0.1 2.999999999996569 0.0
0.1 3.099999999996277 0.0
0.1 3.199999999995984 0.0
0.1 3.299999999995693 0.0
0.1 3.399999999995401 0.0
0.1 3.499999999995108 0.0
0.1 3.599999999994816 0.0
0.1 3.699999999994525 0.0
0.1 3.799999999994232 0.0
0.1 3.89999999999394 0.0
0.1 3.999999999993648 0.0
0.1 4.099999999993356 0.0
0.1 4.199999999993064 0.0
0.1 4.299999999992772 0.0
0.1 4.399999999992479 0.0
0.1 4.499999999992188 0.0
0.1 4.599999999991895 0.0
0.1 4.699999999991603 0.0
0.1 4.799999999991311 0.0
0.1 4.899999999991019 0.0
0.1 4.999999999990727 0.0
0.1 5.099999999990436 0.0
0.1 5.199999999990144 0.0
0.1 5.299999999989851 0.0
0.1 5.399999999989559 0.0
0.1 5.499999999989267 0.0
0.1 5.599999999988975 0.0
0.1 5.699999999988683 0.0
0.1 5.799999999988391 0.0
0.1 5.899999999988099 0.0
0.1 5.999999999987806 0.0
0.1 6.099999999987515 0.0
0.1 6.199999999987222 0.0
0.1 6.299999999986929 0.0
0.1 6.399999999986638 0.0
0.1 6.499999999986345 0.0
0.1 6.599999999986054 0.0
0.1 6.699999999985762 0.0
0.1 6.79999999998547 0.0
0.1 6.899999999985177 0.0
0.1 6.999999999984885 0.0
0.1 7.099999999984593 0.0
0.1 7.199999999984302 0.0
0.1 7.299999999984009 0.0
0.1 7.399999999983717 0.0
0.1 7.499999999983426 0.0
0.1 7.599999999983132 0.0
0.1 7.699999999982841 0.0
0.1 7.799999999982549 0.0
0.1 7.899999999982256 0.0
0.1 7.999999999982034 0.0
0.1 8.099999999981964 0.0
0.1 8.199999999982062 0.0
0.1 8.299999999982214 0.0
0.1 8.399999999982366 0.0
0.1 8.499999999982517 0.0
0.1 8.59999999998267 0.0
0.1 8.699999999982822 0.0
0.1 8.799999999982973 0.0
0.1 8.899999999983125 0.0
0.1 8.999999999983277 0.0
0.1 9.09999999998343 0.0
0.1 9.19999999998358 0.0
0.1 9.299999999983733 0.0
0.1 9.399999999983885 0.0
0.1 9.499999999984038 0.0
0.1 9.599999999984188 0.0
0.1 9.69999999998434 0.0
0.1 9.799999999984493 0.0
0.1 9.899999999984646 0.0
0.1 9.999999999984798 0.0
0.1 10.09999999998495 0.0
0.1 10.1999999999851 0.0
0.1 10.29999999998525 0.0
0.1 10.39999999998541 0.0
0.1 10.49999999998556 0.0
0.1 10.59999999998571 0.0
0.1 10.69999999998586 0.0
0.1 10.79999999998601 0.0
0.1 10.89999999998616 0.0
0.1 10.99999999998632 0.0
0.1 11.09999999998647 0.0
0.1 11.19999999998662 0.0
0.1 11.29999999998677 0.0
0.1 11.39999999998693 0.0
0.1 11.49999999998708 0.0
0.1 11.59999999998723 0.0
0.1 11.69999999998738 0.0
0.1 11.79999999998754 0.0
0.1 11.89999999998769 0.0
0.1 11.99999999998784 0.0
0.1 12.09999999998799 0.0
0.1 12.19999999998814 0.0
0.1 12.2999999999883 0.0
0.1 12.39999999998845 0.0
0.1 12.4999999999886 0.0
0.1 12.59999999998875 0.0
0.1 12.6999999999889 0.0
0.1 12.79999999998905 0.0
0.1 12.89999999998921 0.0
0.1 12.99999999998936 0.0
0.1 13.09999999998951 0.0
0.1 13.19999999998966 0.0
0.1 13.29999999998982 0.0
0.1 13.39999999998997 0.0
0.1 13.49999999999012 0.0
0.1 13.59999999999027 0.0
0.1 13.69999999999042 0.0
0.1 13.79999999999057 0.0
0.1 13.89999999999073 0.0
0.1 13.99999999999088 0.0
0.1 14.09999999999103 0.0
0.1 14.19999999999118 0.0
0.1 14.29999999999134 0.0
0.1 14.39999999999149 0.0
0.1 14.49999999999164 0.0
0.1 14.59999999999179 0.0
0.1 14.69999999999194 0.0
0.1 14.7999999999921 0.0
0.1 14.89999999999225 0.0
0.1 14.9999999999924 0.0
0.1 15.09999999999255 0.0
0.1 15.1999999999927 0.0
0.1 15.29999999999285 0.0
0.1 15.39999999999301 0.0
0.1 15.49999999999316 0.0
0.1 15.59999999999331 0.0
0.1 15.69999999999346 0.0
0.1 15.79999999999362 0.0
0.1 15.89999999999377 0.0
0.1 15.99999999999392 0.0
0.1 16.09999999999407 0.0
0.1 16.19999999999422 0.0
0.1 16.29999999999437 0.0
0.1 16.39999999999453 0.0
0.1 16.49999999999468 0.0
0.1 16.59999999999483 0.0
0.1 16.69999999999498 0.0
0.1 16.79999999999514 0.0
0.1 16.89999999999528 0.0
0.1 16.99999999999544 0.0
0.1 17.09999999999559 0.0
0.1 17.19999999999574 0.0
0.1 17.29999999999589 0.0
0.1 17.39999999999605 0.0
0.1 17.4999999999962 0.0
0.1 17.59999999999635 0.0
0.1 17.6999999999965 0.0
0.1 17.79999999999665 0.0
0.1 17.89999999999681 0.0
0.1 17.99999999999696 0.0
0.1 18.09999999999711 0.0
0.1 18.19999999999726 0.0
0.1 18.29999999999742 0.0
0.1 18.39999999999757 0.0
0.1 18.49999999999772 0.0
0.1 18.59999999999787 0.0
0.1 18.69999999999802 0.0
0.1 18.79999999999818 0.0
0.1 18.89999999999833 0.0
0.1 18.99999999999848 0.0
0.1 19.09999999999863 0.0
0.1 19.19999999999878 0.0
0.1 19.29999999999894 0.0
0.1 19.39999999999909 0.0
0.1 19.49999999999924 0.0
0.1 19.59999999999939 0.0
0.1 19.69999999999955 0.0
0.1 19.7999999999997 0.0
0.1 19.89999999999985 0.0
0.0 19.9 0.0
0.0 19.8 0.0
0.0 19.7 0.0
0.0 19.6 0.0
0.0 19.5 0.0
0.0 19.4 0.0
0.0 19.3 0.0
0.0 19.2 0.0
0.0 19.1 0.0
0.0 19.0 0.0
0.0 18.9 0.0
0.0 18.8 0.0
0.0 18.7 0.0
0.0 18.6 0.0
0.0 18.5 0.0
0.0 18.4 0.0
0.0 18.3 0.0
0.0 18.2 0.0
0.0 18.1 0.0
0.0 18.0 0.0
0.0 17.9 0.0
0.0 17.8 0.0
0.0 17.7 0.0
0.0 17.6 0.0
0.0 17.5 0.0
0.0 17.4 0.0
0.0 17.3 0.0
0.0 17.2 0.0
0.0 17.09999999999999 0.0
0.0 17.0 0.0
0.0 16.9 0.0
0.0 16.8 0.0
0.0 16.7 0.0
0.0 16.59999999999999 0.0
0.0 16.49999999999999 0.0
0.0 16.4 0.0
0.0 16.29999999999999 0.0
0.0 16.2 0.0
0.0 16.09999999999999 0.0
0.0 15.99999999999999 0.0
0.0 15.89999999999999 0.0
0.0 15.79999999999999 0.0
0.0 15.69999999999999 0.0
0.0 15.59999999999999 0.0
0.0 15.49999999999999 0.0
0.0 15.39999999999999 0.0
0.0 15.29999999999999 0.0
0.0 15.19999999999999 0.0
0.0 15.09999999999999 0.0
0.0 14.99999999999999 0.0
0.0 14.89999999999999 0.0
0.0 14.79999999999999 0.0
0.0 14.69999999999999 0.0
0.0 14.59999999999999 0.0
0.0 14.49999999999999 0.0
0.0 14.39999999999999 0.0
0.0 14.29999999999999 0.0
0.0 14.19999999999999 0.0
0.0 14.09999999999999 0.0
0.0 13.99999999999999 0.0
0.0 13.89999999999999 0.0
0.0 13.79999999999999 0.0
0.0 13.69999999999999 0.0
0.0 13.59999999999999 0.0
0.0 13.49999999999999 0.0
0.0 13.39999999999999 0.0
0.0 13.29999999999999 0.0
0.0 13.19999999999999 0.0
0.0 13.09999999999999 0.0
0.0 12.99999999999999 0.0
0.0 12.89999999999999 0.0
0.0 12.79999999999999 0.0
0.0 12.69999999999999 0.0
0.0 12.59999999999999 0.0
0.0 12.49999999999999 0.0
0.0 12.39999999999999 0.0
0.0 12.29999999999999 0.0
0.0 12.19999999999999 0.0
0.0 12.09999999999999 0.0
0.0 11.99999999999999 0.0
0.0 11.89999999999999 0.0
0.0 11.79999999999999 0.0
0.0 11.69999999999999 0.0
0.0 11.59999999999999 0.0
0.0 11.49999999999999 0.0
0.0 11.39999999999999 0.0
0.0 11.29999999999999 0.0
0.0 11.19999999999999 0.0
0.0 11.09999999999999 0.0
0.0 10.99999999999999 0.0
0.0 10.89999999999999 0.0
0.0 10.79999999999999 0.0
0.0 10.69999999999999 0.0
0.0 10.59999999999999 0.0
0.0 10.49999999999999 0.0
0.0 10.39999999999999 0.0
0.0 10.29999999999999 0.0
0.0 10.19999999999999 0.0
0.0 10.09999999999999 0.0
0.0 9.999999999999993 0.0
0.0 9.899999999999993 0.0
0.0 9.799999999999994 0.0
0.0 9.699999999999992 0.0
0.0 9.599999999999993 0.0
0.0 9.499999999999993 0.0
0.0 9.399999999999993 0.0
0.0 9.299999999999995 0.0
0.0 9.199999999999996 0.0
0.0 9.099999999999994 0.0
0.0 8.999999999999995 0.0
0.0 8.899999999999995 0.0
0.0 8.799999999999994 0.0
0.0 8.699999999999994 0.0
0.0 8.599999999999994 0.0
0.0 8.499999999999995 0.0
0.0 8.399999999999995 0.0
0.0 8.299999999999994 0.0
0.0 8.199999999999994 0.0
0.0 8.099999999999994 0.0
0.0 7.999999999999993 0.0
0.0 7.899999999999995 0.0
0.0 7.799999999999995 0.0
0.0 7.699999999999996 0.0
0.0 7.599999999999996 0.0
0.0 7.499999999999996 0.0
0.0 7.399999999999995 0.0
0.0 7.299999999999995 0.0
0.0 7.199999999999996 0.0
0.0 7.099999999999994 0.0
0.0 6.999999999999995 0.0
0.0 6.899999999999995 0.0
0.0 6.799999999999995 0.0
0.0 6.699999999999996 0.0
0.0 6.599999999999994 0.0
0.0 6.499999999999995 0.0
0.0 6.399999999999997 0.0
0.0 6.299999999999997 0.0
0.0 6.199999999999996 0.0
0.0 6.099999999999996 0.0
0.0 5.999999999999996 0.0
0.0 5.899999999999997 0.0
0.0 5.799999999999997 0.0
0.0 5.699999999999996 0.0
0.0 5.599999999999996 0.0
0.0 5.499999999999996 0.0
0.0 5.399999999999995 0.0
0.0 5.299999999999995 0.0
0.0 5.199999999999996 0.0
0.0 5.099999999999996 0.0
0.0 4.999999999999998 0.0
0.0 4.899999999999999 0.0
0.0 4.799999999999997 0.0
0.0 4.699999999999998 0.0
0.0 4.599999999999998 0.0
0.0 4.499999999999996 0.0
0.0 4.399999999999997 0.0
0.0 4.299999999999997 0.0
0.0 4.199999999999998 0.0
0.0 4.099999999999998 0.0
0.0 3.999999999999996 0.0
0.0 3.899999999999999 0.0
0.0 3.799999999999997 0.0
0.0 3.699999999999996 0.0
0.0 3.599999999999998 0.0
0.0 3.5 0.0
0.0 3.399999999999999 0.0
0.0 3.299999999999997 0.0
0.0 3.199999999999999 0.0
0.0 3.099999999999998 0.0
0.0 3.0 0.0
0.0 2.899999999999999 0.0
0.0 2.799999999999997 0.0
0.0 2.699999999999999 0.0
0.0 2.599999999999998 0.0
0.0 2.499999999999996 0.0
0.0 2.399999999999999 0.0
0.0 2.299999999999997 0.0
0.0 2.199999999999999 0.0
0.0 2.100000000000001 0.0
0.0 2.0 0.0
0.0 1.899999999999999 0.0
0.0 1.800000000000001 0.0
0.0 1.699999999999999 0.0
0.0 1.599999999999998 0.0
0.0 1.5 0.0
0.0 1.399999999999999 0.0
0.0 1.299999999999997 0.0
0.0 1.199999999999999 0.0
0.0 1.099999999999998 0.0
0.0 1.0 0.0
0.0 0.8999999999999986 0.0
0.0 0.8000000000000007 0.0
0.0 0.6999999999999993 0.0
0.0 0.6000000000000014 0.0
0.0 0.5 0.0
0.0 0.3999999999999986 0.0
0.0 0.3000000000000007 0.0
0.0 0.1999999999999993 0.0
[...]
POINT_DATA 804
VECTORS displacement double
0.0 0.0 0.0
0.0 0.0 0.0
0.0 0.0017855506842335111 0.0
0.0 0.0017855506842335165 0.0
0.0 0.0 0.0
0.0 0.0 0.0
0.0 0.0017855506842335304 0.0
0.0 0.0017855506842335196 0.0
0.0 -3.7674118474511026e-12 0.0
0.0 -1.5812192513083093e-11 0.0
0.0 -1.290996016230554e-11 0.0
0.0 -2.8670052496864673e-11 0.0
0.0 -2.585582970014872e-11 0.0
0.0 -3.755538046145185e-11 0.0
0.0 -4.2171557350750515e-11 0.0
0.0 -4.4411993258045156e-11 0.0
0.0 -5.861958084201548e-11 0.0
0.0 -5.3257587223225114e-11 0.0
0.0 -7.11701020103177e-11 0.0
0.0 -6.723130745134311e-11 0.0
0.0 -7.842287471498993e-11 0.0
0.0 -8.542403700348885e-11 0.0
0.0 -8.368796862244886e-11 0.0
0.0 -1.0262633219054993e-10 0.0
0.0 -9.30068224574011e-11 0.0
0.0 -1.1340718712507684e-10 0.0
0.0 -1.0971471081805625e-10 0.0
0.0 -1.1765254907558548e-10 0.0
0.0 -1.3030554078257334e-10 0.0
0.0 -1.219451914627882e-10 0.0
0.0 -1.465807578978049e-10 0.0
0.0 -1.3401823342551686e-10 0.0
0.0 -1.534522055949794e-10 0.0
0.0 -1.54658991918961e-10 0.0
0.0 -1.5501895157320152e-10 0.0
0.0 -1.7565911114016552e-10 0.0
0.0 -1.6154633614076487e-10 0.0
0.0 -1.8753392308501516e-10 0.0
0.0 -1.789050037800959e-10 0.0
0.0 -1.8998057310235224e-10 0.0
0.0 -2.014456134805656e-10 0.0
0.0 -1.93157899380542e-10 0.0
0.0 -2.1746011936708574e-10 0.0
0.0 -2.0668404473184922e-10 0.0
0.0 -2.2259222993798827e-10 0.0
0.0 -2.2804577264474148e-10 0.0
0.0 -2.2560322055379088e-10 0.0
0.0 -2.4503805323216333e-10 0.0
0.0 -2.3797321564772865e-10 0.0
0.0 -2.510572058793162e-10 0.0
0.0 -2.587995279429502e-10 0.0
0.0 -2.5453168572059364e-10 0.0
0.0 -2.74941884493856e-10 0.0
0.0 -2.684895347453979e-10 0.0
0.0 -2.786462502717748e-10 0.0
0.0 -2.918848050897624e-10 0.0
0.0 -2.8010854514689374e-10 0.0
0.0 -3.086477491547576e-10 0.0
0.0 -2.953166458419801e-10 0.0
0.0 -3.0938017344359115e-10 0.0
0.0 -3.226055251297314e-10 0.0
0.0 -3.0720843997276606e-10 0.0
0.0 -3.416521498769295e-10 0.0
0.0 -3.220106583567597e-10 0.0
0.0 -3.41197216232898e-10 0.0
0.0 -3.51105542006442e-10 0.0
0.0 -3.377913708749229e-10 0.0
0.0 -3.700366182302624e-10 0.0
0.0 -3.539451903172877e-10 0.0
0.0 -3.6805429456672454e-10 0.0
0.0 -3.831996580036878e-10 0.0
0.0 -3.6706333089580385e-10 0.0
0.0 -3.97068312527196e-10 0.0
0.0 -3.895296817510006e-10 0.0
0.0 -3.8999593086013416e-10 0.0
0.0 -4.2016253553415596e-10 0.0
0.0 -3.9256019660996166e-10 0.0
0.0 -4.264531150022823e-10 0.0
0.0 -4.236784654506003e-10 0.0
0.0 -4.1345956567651454e-10 0.0
0.0 -4.546755809860806e-10 0.0
0.0 -4.21449623718307e-10 0.0
0.0 -4.525920565386383e-10 0.0
0.0 -4.5908454631096253e-10 0.0
0.0 -4.3934027716190755e-10 0.0
0.0 -4.826181574618288e-10 0.0
0.0 -4.5973022320572515e-10 0.0
0.0 -4.693714524956443e-10 0.0
0.0 -5.00656872036949e-10 0.0
0.0 -4.641081661746383e-10 0.0
0.0 -5.072111110113672e-10 0.0
0.0 -5.028567283667782e-10 0.0
0.0 -4.836638815178667e-10 0.0
0.0 -5.398767478611892e-10 0.0
0.0 -4.953652961549696e-10 0.0
0.0 -5.252115880694504e-10 0.0
0.0 -5.472447219078632e-10 0.0
0.0 -5.056476158327797e-10 0.0
0.0 -5.633695947839716e-10 0.0
0.0 -5.44516239201424e-10 0.0
0.0 -5.31341938850402e-10 0.0
0.0 -5.915697466073761e-10 0.0
0.0 -5.392441745473901e-10 0.0
0.0 -5.710927721690033e-10 0.0
0.0 -6.028658314655037e-10 0.0
0.0 -5.424095434821189e-10 0.0
0.0 -6.17981326368983e-10 0.0
0.0 -5.931062416780113e-10 0.0
0.0 -5.707862968660194e-10 0.0
0.0 -6.476675915858851e-10 0.0
0.0 -5.853528294135167e-10 0.0
0.0 -6.101105847899577e-10 0.0
0.0 -6.636901143917485e-10 0.0
0.0 -5.823602076386984e-10 0.0
0.0 -6.589131253669144e-10 0.0
0.0 -6.606451504201856e-10 0.0
0.0 -5.962517778583319e-10 0.0
0.0 -7.041752909129993e-10 0.0
0.0 -6.447790348924383e-10 0.0
0.0 -6.320244630655239e-10 0.0
0.0 -7.312761237420768e-10 0.0
0.0 -6.337912350235704e-10 0.0
0.0 -6.759924854053483e-10 0.0
0.0 -7.468200219014354e-10 0.0
0.0 -6.255560997961203e-10 0.0
0.0 -7.317541055135735e-10 0.0
0.0 -7.409804107468267e-10 0.0
0.0 -6.361813674182823e-10 0.0
0.0 -7.815980830800887e-10 0.0
0.0 -7.269852145110086e-10 0.0
0.0 -6.604118022060558e-10 0.0
0.0 -8.248663121626024e-10 0.0
0.0 -7.09285701493388e-10 0.0
0.0 -6.983924065016636e-10 0.0
0.0 -8.388707457346486e-10 0.0
0.0 -5.222418549364483e-10 0.0
0.0 1.5633858986680963e-10 0.0
0.0 3.152417892242515e-09 0.0
0.0 1.489086597191784e-08 0.0
0.0 5.3078540912933375e-08 0.0
0.0 1.690528111274207e-07 0.0
0.0 4.929556742896842e-07 0.0
0.0 1.3286906896662413e-06 0.0
0.0 3.3356165793403836e-06 0.0
0.0 7.8261169028524e-06 0.0
0.0 1.7200921535288218e-05 0.0
0.0 3.547575308292399e-05 0.0
0.0 6.872484631546015e-05 0.0
0.0 0.00012512388966510562 0.0
0.0 0.0002141480776147875 0.0
0.0 0.0003445300804067521 0.0
0.0 0.0005209756704331776 0.0
0.0 0.0007403517077301857 0.0
0.0 0.0009889035196826255 0.0
0.0 0.0012425053017206863 0.0
0.0 0.0014713171313807266 0.0
0.0 0.0016483244103181265 0.0
0.0 0.0017587369074188873 0.0
0.0 0.0018056231944357634 0.0
0.0 0.0018081066902609854 0.0
0.0 0.0017922180098421672 0.0
0.0 0.0017790703325958493 0.0
0.0 0.0017771381740346484 0.0
0.0 0.0017829173872065875 0.0
0.0 0.001788381496418717 0.0
0.0 0.0017889354885589136 0.0
0.0 0.0017860262366320655 0.0
0.0 0.0017837805915999134 0.0
0.0 0.001784219538999096 0.0
0.0 0.0017859236891342655 0.0
0.0 0.0017865882315336197 0.0
0.0 0.0017858028939192812 0.0
0.0 0.001784963237936531 0.0
0.0 0.0017851122403328035 0.0
0.0 0.0017857603605199812 0.0
0.0 0.0017859168438304894 0.0
0.0 0.001785516079831004 0.0
0.0 0.0017852654916147646 0.0
0.0 0.0017854744273986469 0.0
0.0 0.001785718732137582 0.0
0.0 0.001785630554554236 0.0
0.0 0.0017854268226731667 0.0
0.0 0.0017854494177268912 0.0
0.0 0.0017856087936640181 0.0
0.0 0.0017856163950507253 0.0
0.0 0.0017854946350417532 0.0
0.0 0.0017854768523971464 0.0
0.0 0.0017855693722454641 0.0
0.0 0.0017855874514366248 0.0
0.0 0.00178551707211161 0.0
0.0 0.0017855025586142681 0.0
0.0 0.0017855562998300115 0.0
0.0 0.0017855665516027046 0.0
0.0 0.0017855251446713964 0.0
0.0 0.0017855185468743085 0.0
0.0 0.0017855511118533799 0.0
0.0 0.0017855548404113709 0.0
0.0 0.0017855283252692807 0.0
0.0 0.0017855270214053999 0.0
0.0 0.0017855495617574773 0.0
0.0 0.0017855484308845395 0.0
0.0 0.0017855285866449754 0.0
0.0 0.0017855324324940558 0.0
0.0 0.0017855501223242828 0.0
0.0 0.001785543254003375 0.0
0.0 0.001785527769219692 0.0
0.0 0.001785537755540453 0.0
0.0 0.0017855377555404573 0.0
0.0 0.001785527769219693 0.0
0.0 0.0017855432540033788 0.0
0.0 0.0017855501223242838 0.0
0.0 0.001785532432494066 0.0
0.0 0.001785528586644969 0.0
0.0 0.001785548430884536 0.0
0.0 0.0017855495617574773 0.0
0.0 0.0017855270214054073 0.0
0.0 0.0017855283252692937 0.0
0.0 0.0017855548404113616 0.0
0.0 0.0017855511118533764 0.0
0.0 0.0017855185468743074 0.0
0.0 0.0017855251446713919 0.0
0.0 0.0017855665516027066 0.0
0.0 0.0017855562998300063 0.0
0.0 0.001785502558614268 0.0
0.0 0.001785517072111607 0.0
0.0 0.0017855874514366259 0.0
0.0 0.0017855693722454561 0.0
0.0 0.0017854768523971366 0.0
0.0 0.0017854946350417589 0.0
0.0 0.0017856163950507357 0.0
0.0 0.0017856087936640116 0.0
0.0 0.0017854494177268884 0.0
0.0 0.001785426822673162 0.0
0.0 0.001785630554554235 0.0
0.0 0.0017857187321376003 0.0
0.0 0.0017854744273986698 0.0
0.0 0.001785265491614766 0.0
0.0 0.001785516079830986 0.0
0.0 0.0017859168438304903 0.0
0.0 0.001785760360520023 0.0
0.0 0.0017851122403328337 0.0
0.0 0.0017849632379365076 0.0
0.0 0.0017858028939192283 0.0
0.0 0.0017865882315336167 0.0
0.0 0.0017859236891343663 0.0
0.0 0.001784219538999189 0.0
0.0 0.0017837805915998615 0.0
0.0 0.0017860262366318571 0.0
0.0 0.001788935488558795 0.0
0.0 0.001788381496418928 0.0
0.0 0.001782917387207048 0.0
0.0 0.0017771381740348717 0.0
0.0 0.0017790703325952972 0.0
0.0 0.0017922180098409507 0.0
0.0 0.001808106690260179 0.0
0.0 0.0018056231944372817 0.0
0.0 0.0017587369074246934 0.0
0.0 0.0016483244103293177 0.0
0.0 0.001471317131397019 0.0
0.0 0.0012425053017405016 0.0
0.0 0.0009889035197036017 0.0
0.0 0.0007403517077499991 0.0
0.0 0.0005209756704501245 0.0
0.0 0.0003445300804200139 0.0
0.0 0.0002141480776243548 0.0
0.0 0.00012512388967148724 0.0
0.0 6.872484631941199e-05 0.0
0.0 3.5475753085202687e-05 0.0
0.0 1.7200921536514495e-05 0.0
0.0 7.826116903467463e-06 0.0
0.0 3.33561657962787e-06 0.0
0.0 1.3286906897915858e-06 0.0
0.0 4.929556743408291e-07 0.0
0.0 1.6905281114664205e-07 0.0
0.0 5.307854091967814e-08 0.0
0.0 1.4890865974830879e-08 0.0
0.0 3.152417893388203e-09 0.0
0.0 1.563385901217777e-10 0.0
0.0 -5.222418550253153e-10 0.0
0.0 -8.388707455951716e-10 0.0
0.0 -6.983924061497286e-10 0.0
0.0 -7.092857014446296e-10 0.0
0.0 -8.248663123768917e-10 0.0
0.0 -6.604118022050222e-10 0.0
0.0 -7.269852141566366e-10 0.0
0.0 -7.815980828049655e-10 0.0
0.0 -6.361813675525006e-10 0.0
0.0 -7.409804109207603e-10 0.0
0.0 -7.317541057315963e-10 0.0
0.0 -6.255560998531572e-10 0.0
0.0 -7.468200218680822e-10 0.0
0.0 -6.759924855327377e-10 0.0
0.0 -6.33791234977739e-10 0.0
0.0 -7.312761236518986e-10 0.0
0.0 -6.320244634295335e-10 0.0
0.0 -6.447790350827447e-10 0.0
0.0 -7.041752906373861e-10 0.0
0.0 -5.962517775747824e-10 0.0
0.0 -6.606451502625173e-10 0.0
0.0 -6.589131254026696e-10 0.0
0.0 -5.823602076228265e-10 0.0
0.0 -6.636901143518978e-10 0.0
0.0 -6.101105848504471e-10 0.0
0.0 -5.853528295354923e-10 0.0
0.0 -6.476675917643295e-10 0.0
0.0 -5.707862968875572e-10 0.0
0.0 -5.931062417149263e-10 0.0
0.0 -6.179813266888797e-10 0.0
0.0 -5.424095437301574e-10 0.0
0.0 -6.028658315770102e-10 0.0
0.0 -5.710927723417142e-10 0.0
0.0 -5.392441747524685e-10 0.0
0.0 -5.915697466245041e-10 0.0
0.0 -5.31341938764163e-10 0.0
0.0 -5.445162392570495e-10 0.0
0.0 -5.63369594914787e-10 0.0
0.0 -5.056476158445461e-10 0.0
0.0 -5.472447219566631e-10 0.0
0.0 -5.252115883158312e-10 0.0
0.0 -4.953652964044202e-10 0.0
0.0 -5.398767479535106e-10 0.0
0.0 -4.836638815009749e-10 0.0
0.0 -5.028567283602673e-10 0.0
0.0 -5.072111111427991e-10 0.0
0.0 -4.6410816623866017e-10 0.0
0.0 -5.006568719099745e-10 0.0
0.0 -4.693714521801103e-10 0.0
0.0 -4.597302228802168e-10 0.0
0.0 -4.826181574523813e-10 0.0
0.0 -4.3934027729903425e-10 0.0
0.0 -4.5908454644717824e-10 0.0
0.0 -4.5259205667018626e-10 0.0
0.0 -4.214496237386798e-10 0.0
0.0 -4.5467558086234125e-10 0.0
0.0 -4.134595655629426e-10 0.0
0.0 -4.23678465399985e-10 0.0
0.0 -4.2645311496116214e-10 0.0
0.0 -3.925601965389586e-10 0.0
0.0 -4.201625356556049e-10 0.0
0.0 -3.89995930990068e-10 0.0
0.0 -3.895296816621102e-10 0.0
0.0 -3.970683126299409e-10 0.0
0.0 -3.670633310821246e-10 0.0
0.0 -3.831996580259253e-10 0.0
0.0 -3.6805429451857575e-10 0.0
0.0 -3.539451901725679e-10 0.0
0.0 -3.7003661811111904e-10 0.0
0.0 -3.377913709079317e-10 0.0
0.0 -3.5110554200925544e-10 0.0
0.0 -3.411972161899953e-10 0.0
0.0 -3.220106584202188e-10 0.0
0.0 -3.4165215003604116e-10 0.0
0.0 -3.0720843998777726e-10 0.0
0.0 -3.2260552498751547e-10 0.0
0.0 -3.09380173392273e-10 0.0
0.0 -2.953166459058121e-10 0.0
0.0 -3.086477491663844e-10 0.0
0.0 -2.801085451030961e-10 0.0
0.0 -2.918848051093765e-10 0.0
0.0 -2.786462503469851e-10 0.0
0.0 -2.684895348108764e-10 0.0
0.0 -2.749418845284323e-10 0.0
0.0 -2.545316857431473e-10 0.0
0.0 -2.5879952796775346e-10 0.0
0.0 -2.5105720591707055e-10 0.0
0.0 -2.379732156762273e-10 0.0
0.0 -2.4503805320925503e-10 0.0
0.0 -2.25603220547658e-10 0.0
0.0 -2.2804577269968677e-10 0.0
0.0 -2.2259222996030098e-10 0.0
0.0 -2.0668404467039924e-10 0.0
0.0 -2.174601192868761e-10 0.0
0.0 -1.931578993320577e-10 0.0
0.0 -2.014456135025122e-10 0.0
0.0 -1.8998057319136802e-10 0.0
0.0 -1.7890500384419297e-10 0.0
0.0 -1.8753392304028423e-10 0.0
0.0 -1.6154633610769972e-10 0.0
0.0 -1.7565911118065247e-10 0.0
0.0 -1.5501895157261931e-10 0.0
0.0 -1.5465899189938177e-10 0.0
0.0 -1.53452205585393e-10 0.0
0.0 -1.3401823340296525e-10 0.0
0.0 -1.465807579116219e-10 0.0
0.0 -1.219451914862514e-10 0.0
0.0 -1.3030554079379002e-10 0.0
0.0 -1.1765254911975597e-10 0.0
0.0 -1.0971471084950005e-10 0.0
0.0 -1.134071871119383e-10 0.0
0.0 -9.300682244408685e-11 0.0
0.0 -1.026263322129591e-10 0.0
0.0 -8.368796866768113e-11 0.0
0.0 -8.542403700498695e-11 0.0
0.0 -7.842287468831836e-11 0.0
0.0 -6.723130745997367e-11 0.0
0.0 -7.117010205372395e-11 0.0
0.0 -5.325758722660831e-11 0.0
0.0 -5.861958081154184e-11 0.0
0.0 -4.441199326602691e-11 0.0
0.0 -4.2171557358122413e-11 0.0
0.0 -3.7555380457084684e-11 0.0
0.0 -2.5855829717363906e-11 0.0
0.0 -2.867005252591159e-11 0.0
0.0 -1.2909960196116138e-11 0.0
0.0 -1.581219252400079e-11 0.0
0.0 -3.767411826839224e-12 0.0
0.0 -3.767411824159433e-12 0.0
0.0 -1.58121924774065e-11 0.0
0.0 -1.2909960093031163e-11 0.0
0.0 -2.867005243996149e-11 0.0
0.0 -2.585582973875014e-11 0.0
0.0 -3.7555380537824174e-11 0.0
0.0 -4.217155735710369e-11 0.0
0.0 -4.441199324417585e-11 0.0
0.0 -5.86195808637726e-11 0.0
0.0 -5.325758726082273e-11 0.0
0.0 -7.117010205427745e-11 0.0
0.0 -6.723130746449851e-11 0.0
0.0 -7.84228746847525e-11 0.0
0.0 -8.542403698186925e-11 0.0
0.0 -8.36879686131639e-11 0.0
0.0 -1.0262633215079827e-10 0.0
0.0 -9.300682240561061e-11 0.0
0.0 -1.134071870930622e-10 0.0
0.0 -1.0971471081100115e-10 0.0
0.0 -1.1765254910635792e-10 0.0
0.0 -1.303055408059394e-10 0.0
0.0 -1.2194519145800618e-10 0.0
0.0 -1.4658075790288836e-10 0.0
0.0 -1.3401823343815778e-10 0.0
0.0 -1.5345220559995185e-10 0.0
0.0 -1.546589918924483e-10 0.0
0.0 -1.5501895151966014e-10 0.0
0.0 -1.7565911111314926e-10 0.0
0.0 -1.615463361583802e-10 0.0
0.0 -1.8753392308417596e-10 0.0
0.0 -1.789050037556402e-10 0.0
0.0 -1.899805730864472e-10 0.0
0.0 -2.014456134521108e-10 0.0
0.0 -1.9315789937043303e-10 0.0
0.0 -2.1746011941304244e-10 0.0
0.0 -2.066840447977135e-10 0.0
0.0 -2.2259223001352997e-10 0.0
0.0 -2.2804577268949993e-10 0.0
0.0 -2.256032205292308e-10 0.0
0.0 -2.4503805319431734e-10 0.0
0.0 -2.379732156637114e-10 0.0
0.0 -2.5105720594805183e-10 0.0
0.0 -2.5879952800015273e-10 0.0
0.0 -2.5453168569372966e-10 0.0
0.0 -2.7494188443350774e-10 0.0
0.0 -2.684895347237702e-10 0.0
0.0 -2.7864625029532013e-10 0.0
0.0 -2.9188480516549127e-10 0.0
0.0 -2.801085452116939e-10 0.0
0.0 -3.086477491266338e-10 0.0
0.0 -2.953166457507382e-10 0.0
0.0 -3.093801733723136e-10 0.0
0.0 -3.226055251404255e-10 0.0
0.0 -3.072084400918888e-10 0.0
0.0 -3.416521499974252e-10 0.0
0.0 -3.2201065837678895e-10 0.0
0.0 -3.4119721624694993e-10 0.0
0.0 -3.5110554199668545e-10 0.0
0.0 -3.3779137081496277e-10 0.0
0.0 -3.7003661817550787e-10 0.0
0.0 -3.539451903603082e-10 0.0
0.0 -3.6805429461285304e-10 0.0
0.0 -3.831996580279582e-10 0.0
0.0 -3.670633309937979e-10 0.0
0.0 -3.970683125313554e-10 0.0
0.0 -3.8952968157719393e-10 0.0
0.0 -3.899959307310794e-10 0.0
0.0 -4.2016253548579624e-10 0.0
0.0 -3.9256019658508364e-10 0.0
0.0 -4.264531150186275e-10 0.0
0.0 -4.2367846548646685e-10 0.0
0.0 -4.134595656450768e-10 0.0
0.0 -4.5467558096709344e-10 0.0
0.0 -4.2144962375422077e-10 0.0
0.0 -4.525920565327247e-10 0.0
0.0 -4.590845463798013e-10 0.0
0.0 -4.3934027717852737e-10 0.0
0.0 -4.826181573350676e-10 0.0
0.0 -4.5973022304711533e-10 0.0
0.0 -4.693714524484385e-10 0.0
0.0 -5.006568720095638e-10 0.0
0.0 -4.6410816620795145e-10 0.0
0.0 -5.072111111461848e-10 0.0
0.0 -5.02856728452482e-10 0.0
0.0 -4.836638815279829e-10 0.0
0.0 -5.398767478119679e-10 0.0
0.0 -4.953652961739305e-10 0.0
0.0 -5.252115880363404e-10 0.0
0.0 -5.472447218154408e-10 0.0
0.0 -5.056476159439518e-10 0.0
0.0 -5.633695949220337e-10 0.0
0.0 -5.445162391186957e-10 0.0
0.0 -5.313419387670065e-10 0.0
0.0 -5.915697465667863e-10 0.0
0.0 -5.392441743654196e-10 0.0
0.0 -5.710927719614399e-10 0.0
0.0 -6.028658314871486e-10 0.0
0.0 -5.424095435799987e-10 0.0
0.0 -6.179813262580968e-10 0.0
0.0 -5.931062412516377e-10 0.0
0.0 -5.707862966639405e-10 0.0
0.0 -6.476675917362508e-10 0.0
0.0 -5.853528294727171e-10 0.0
0.0 -6.101105848113417e-10 0.0
0.0 -6.63690114449769e-10 0.0
0.0 -5.823602077589203e-10 0.0
0.0 -6.589131252689203e-10 0.0
0.0 -6.606451498470487e-10 0.0
0.0 -5.962517774889958e-10 0.0
0.0 -7.041752906738621e-10 0.0
0.0 -6.447790348186933e-10 0.0
0.0 -6.32024463188569e-10 0.0
0.0 -7.312761235410682e-10 0.0
0.0 -6.337912351679852e-10 0.0
0.0 -6.759924858852995e-10 0.0
0.0 -7.468200220048018e-10 0.0
0.0 -6.255560995912366e-10 0.0
0.0 -7.317541053694111e-10 0.0
0.0 -7.409804108524921e-10 0.0
0.0 -6.361813678483705e-10 0.0
0.0 -7.815980832083946e-10 0.0
0.0 -7.269852145009921e-10 0.0
0.0 -6.604118020963832e-10 0.0
0.0 -8.248663118828829e-10 0.0
0.0 -7.092857011472154e-10 0.0
0.0 -6.983924064908817e-10 0.0
0.0 -8.388707461060695e-10 0.0
0.0 -5.222418551906144e-10 0.0
0.0 1.5633859005578506e-10 0.0
0.0 3.1524178921698214e-09 0.0
0.0 1.4890865971893524e-08 0.0
0.0 5.307854091318623e-08 0.0
0.0 1.6905281112804065e-07 0.0
0.0 4.929556742905454e-07 0.0
0.0 1.3286906896668022e-06 0.0
0.0 3.3356165793404805e-06 0.0
0.0 7.826116902852403e-06 0.0
0.0 1.720092153528818e-05 0.0
0.0 3.547575308292363e-05 0.0
0.0 6.872484631546189e-05 0.0
0.0 0.00012512388966510592 0.0
0.0 0.00021414807761478656 0.0
0.0 0.00034453008040675044 0.0
0.0 0.0005209756704331759 0.0
0.0 0.0007403517077301894 0.0
0.0 0.0009889035196826196 0.0
0.0 0.0012425053017206826 0.0
0.0 0.0014713171313807268 0.0
0.0 0.0016483244103181259 0.0
0.0 0.0017587369074188923 0.0
0.0 0.0018056231944357597 0.0
0.0 0.001808106690260975 0.0
0.0 0.0017922180098421633 0.0
0.0 0.0017790703325958363 0.0
0.0 0.0017771381740346534 0.0
0.0 0.0017829173872065823 0.0
0.0 0.0017883814964187123 0.0
0.0 0.0017889354885589144 0.0
0.0 0.001786026236632058 0.0
0.0 0.0017837805915999062 0.0
0.0 0.0017842195389991006 0.0
0.0 0.0017859236891342816 0.0
0.0 0.0017865882315336167 0.0
0.0 0.0017858028939192827 0.0
0.0 0.001784963237936524 0.0
0.0 0.0017851122403328033 0.0
0.0 0.0017857603605199975 0.0
0.0 0.001785916843830491 0.0
0.0 0.0017855160798310027 0.0
0.0 0.001785265491614772 0.0
0.0 0.0017854744273986542 0.0
0.0 0.0017857187321376018 0.0
0.0 0.0017856305545542424 0.0
0.0 0.0017854268226731621 0.0
0.0 0.001785449417726882 0.0
0.0 0.0017856087936640149 0.0
0.0 0.0017856163950507463 0.0
0.0 0.001785494635041756 0.0
0.0 0.0017854768523971403 0.0
0.0 0.001785569372245459 0.0
0.0 0.0017855874514366395 0.0
0.0 0.0017855170721116107 0.0
0.0 0.00178550255861427 0.0
0.0 0.0017855562998300052 0.0
0.0 0.0017855665516026934 0.0
0.0 0.0017855251446713914 0.0
0.0 0.0017855185468743076 0.0
0.0 0.0017855511118533758 0.0
0.0 0.0017855548404113668 0.0
0.0 0.0017855283252692952 0.0
0.0 0.0017855270214053919 0.0
0.0 0.0017855495617574775 0.0
0.0 0.0017855484308845343 0.0
0.0 0.0017855285866449746 0.0
0.0 0.001785532432494054 0.0
0.0 0.0017855501223242817 0.0
0.0 0.001785543254003383 0.0
0.0 0.001785527769219692 0.0
0.0 0.0017855377555404549 0.0
0.0 0.0017855377555404499 0.0
0.0 0.0017855277692196993 0.0
0.0 0.0017855432540033794 0.0
0.0 0.0017855501223242789 0.0
0.0 0.0017855324324940651 0.0
0.0 0.0017855285866449728 0.0
0.0 0.001785548430884534 0.0
0.0 0.0017855495617574756 0.0
0.0 0.0017855270214054005 0.0
0.0 0.001785528325269279 0.0
0.0 0.0017855548404113735 0.0
0.0 0.00178555111185338 0.0
0.0 0.001785518546874312 0.0
0.0 0.0017855251446714 0.0
0.0 0.001785566551602707 0.0
0.0 0.0017855562998300052 0.0
0.0 0.0017855025586142738 0.0
0.0 0.0017855170721116198 0.0
0.0 0.001785587451436626 0.0
0.0 0.0017855693722454576 0.0
0.0 0.001785476852397142 0.0
0.0 0.0017854946350417485 0.0
0.0 0.0017856163950507277 0.0
0.0 0.0017856087936640244 0.0
0.0 0.001785449417726895 0.0
0.0 0.0017854268226731554 0.0
0.0 0.001785630554554222 0.0
0.0 0.001785718732137584 0.0
0.0 0.0017854744273986542 0.0
0.0 0.0017852654916147568 0.0
0.0 0.001785516079830982 0.0
0.0 0.0017859168438304808 0.0
0.0 0.0017857603605200077 0.0
0.0 0.001785112240332831 0.0
0.0 0.0017849632379365126 0.0
0.0 0.0017858028939192264 0.0
0.0 0.001786588231533606 0.0
0.0 0.0017859236891343635 0.0
0.0 0.0017842195389991867 0.0
0.0 0.0017837805915998648 0.0
0.0 0.0017860262366318545 0.0
0.0 0.001788935488558791 0.0
0.0 0.0017883814964189254 0.0
0.0 0.0017829173872070461 0.0
0.0 0.0017771381740348674 0.0
0.0 0.0017790703325953133 0.0
0.0 0.001792218009840949 0.0
0.0 0.0018081066902601813 0.0