# vtk DataFile Version 2.0
data_711
ASCII
DATASET UNSTRUCTURED_GRID
POINTS 804 float
0.0 0.0 0.0
0.1 0.0 0.0
0.1 20.0 0.0
0.0 20.0 0.0
0.0 0.0 -0.1
0.1 0.0 -0.1
0.1 20.0 -0.1
0.0 20.0 -0.1
0.1 0.09999999999992462 0.0
0.1 0.1999999999998517 0.0
0.1 0.2999999999997818 0.0
0.1 0.399999999999712 0.0
0.1 0.4999999999996377 0.0
0.1 0.5999999999995541 0.0
0.1 0.6999999999994495 0.0
0.1 0.7999999999993355 0.0
0.1 0.8999999999992101 0.0
0.1 0.999999999999102 0.0
0.1 1.099999999999006 0.0
0.1 1.199999999998936 0.0
0.1 1.299999999998867 0.0
0.1 1.399999999998797 0.0
0.1 1.499999999998727 0.0
0.1 1.599999999998657 0.0
0.1 1.699999999998587 0.0
0.1 1.799999999998517 0.0
0.1 1.899999999998447 0.0
0.1 1.999999999998378 0.0
0.1 2.099999999998308 0.0
0.1 2.199999999998238 0.0
0.1 2.299999999998168 0.0
0.1 2.399999999998067 0.0
0.1 2.499999999997942 0.0
0.1 2.599999999997706 0.0
0.1 2.699999999997444 0.0
0.1 2.799999999997153 0.0
0.1 2.899999999996861 0.0
0.1 2.999999999996569 0.0
0.1 3.099999999996277 0.0
0.1 3.199999999995984 0.0
0.1 3.299999999995693 0.0
0.1 3.399999999995401 0.0
0.1 3.499999999995108 0.0
0.1 3.599999999994816 0.0
0.1 3.699999999994525 0.0
0.1 3.799999999994232 0.0
0.1 3.89999999999394 0.0
0.1 3.999999999993648 0.0
0.1 4.099999999993356 0.0
0.1 4.199999999993064 0.0
0.1 4.299999999992772 0.0
0.1 4.399999999992479 0.0
0.1 4.499999999992188 0.0
0.1 4.599999999991895 0.0
0.1 4.699999999991603 0.0
0.1 4.799999999991311 0.0
0.1 4.899999999991019 0.0
0.1 4.999999999990727 0.0
0.1 5.099999999990436 0.0
0.1 5.199999999990144 0.0
0.1 5.299999999989851 0.0
0.1 5.399999999989559 0.0
0.1 5.499999999989267 0.0
0.1 5.599999999988975 0.0
0.1 5.699999999988683 0.0
0.1 5.799999999988391 0.0
0.1 5.899999999988099 0.0
0.1 5.999999999987806 0.0
0.1 6.099999999987515 0.0
0.1 6.199999999987222 0.0
0.1 6.299999999986929 0.0
0.1 6.399999999986638 0.0
0.1 6.499999999986345 0.0
0.1 6.599999999986054 0.0
0.1 6.699999999985762 0.0
0.1 6.79999999998547 0.0
0.1 6.899999999985177 0.0
0.1 6.999999999984885 0.0
0.1 7.099999999984593 0.0
0.1 7.199999999984302 0.0
0.1 7.299999999984009 0.0
0.1 7.399999999983717 0.0
0.1 7.499999999983426 0.0
0.1 7.599999999983132 0.0
0.1 7.699999999982841 0.0
0.1 7.799999999982549 0.0
0.1 7.899999999982256 0.0
0.1 7.999999999982034 0.0
0.1 8.099999999981964 0.0
0.1 8.199999999982062 0.0
0.1 8.299999999982214 0.0
0.1 8.399999999982366 0.0
0.1 8.499999999982517 0.0
0.1 8.59999999998267 0.0
0.1 8.699999999982822 0.0
0.1 8.799999999982973 0.0
0.1 8.899999999983125 0.0
0.1 8.999999999983277 0.0
0.1 9.09999999998343 0.0
0.1 9.19999999998358 0.0
0.1 9.299999999983733 0.0
0.1 9.399999999983885 0.0
0.1 9.499999999984038 0.0
0.1 9.599999999984188 0.0
0.1 9.69999999998434 0.0
0.1 9.799999999984493 0.0
0.1 9.899999999984646 0.0
0.1 9.999999999984798 0.0
0.1 10.09999999998495 0.0
0.1 10.1999999999851 0.0
0.1 10.29999999998525 0.0
0.1 10.39999999998541 0.0
0.1 10.49999999998556 0.0
0.1 10.59999999998571 0.0
0.1 10.69999999998586 0.0
0.1 10.79999999998601 0.0
0.1 10.89999999998616 0.0
0.1 10.99999999998632 0.0
0.1 11.09999999998647 0.0
0.1 11.19999999998662 0.0
0.1 11.29999999998677 0.0
0.1 11.39999999998693 0.0
0.1 11.49999999998708 0.0
0.1 11.59999999998723 0.0
0.1 11.69999999998738 0.0
0.1 11.79999999998754 0.0
0.1 11.89999999998769 0.0
0.1 11.99999999998784 0.0
0.1 12.09999999998799 0.0
0.1 12.19999999998814 0.0
0.1 12.2999999999883 0.0
0.1 12.39999999998845 0.0
0.1 12.4999999999886 0.0
0.1 12.59999999998875 0.0
0.1 12.6999999999889 0.0
0.1 12.79999999998905 0.0
0.1 12.89999999998921 0.0
0.1 12.99999999998936 0.0
0.1 13.09999999998951 0.0
0.1 13.19999999998966 0.0
0.1 13.29999999998982 0.0
0.1 13.39999999998997 0.0
0.1 13.49999999999012 0.0
0.1 13.59999999999027 0.0
0.1 13.69999999999042 0.0
0.1 13.79999999999057 0.0
0.1 13.89999999999073 0.0
0.1 13.99999999999088 0.0
0.1 14.09999999999103 0.0
0.1 14.19999999999118 0.0
0.1 14.29999999999134 0.0
0.1 14.39999999999149 0.0
0.1 14.49999999999164 0.0
0.1 14.59999999999179 0.0
0.1 14.69999999999194 0.0
0.1 14.7999999999921 0.0
0.1 14.89999999999225 0.0
0.1 14.9999999999924 0.0
0.1 15.09999999999255 0.0
0.1 15.1999999999927 0.0
0.1 15.29999999999285 0.0
0.1 15.39999999999301 0.0
0.1 15.49999999999316 0.0
0.1 15.59999999999331 0.0
0.1 15.69999999999346 0.0
0.1 15.79999999999362 0.0
0.1 15.89999999999377 0.0
0.1 15.99999999999392 0.0
0.1 16.09999999999407 0.0
0.1 16.19999999999422 0.0
0.1 16.29999999999437 0.0
0.1 16.39999999999453 0.0
0.1 16.49999999999468 0.0
0.1 16.59999999999483 0.0
0.1 16.69999999999498 0.0
0.1 16.79999999999514 0.0
0.1 16.89999999999528 0.0
0.1 16.99999999999544 0.0
0.1 17.09999999999559 0.0
0.1 17.19999999999574 0.0
0.1 17.29999999999589 0.0
0.1 17.39999999999605 0.0
0.1 17.4999999999962 0.0
0.1 17.59999999999635 0.0
0.1 17.6999999999965 0.0
0.1 17.79999999999665 0.0
0.1 17.89999999999681 0.0
0.1 17.99999999999696 0.0
0.1 18.09999999999711 0.0
0.1 18.19999999999726 0.0
0.1 18.29999999999742 0.0
0.1 18.39999999999757 0.0
0.1 18.49999999999772 0.0
0.1 18.59999999999787 0.0
0.1 18.69999999999802 0.0
0.1 18.79999999999818 0.0
0.1 18.89999999999833 0.0
0.1 18.99999999999848 0.0
0.1 19.09999999999863 0.0
0.1 19.19999999999878 0.0
0.1 19.29999999999894 0.0
0.1 19.39999999999909 0.0
0.1 19.49999999999924 0.0
0.1 19.59999999999939 0.0
0.1 19.69999999999955 0.0
0.1 19.7999999999997 0.0
0.1 19.89999999999985 0.0
0.0 19.9 0.0
0.0 19.8 0.0
0.0 19.7 0.0
0.0 19.6 0.0
0.0 19.5 0.0
0.0 19.4 0.0
0.0 19.3 0.0
0.0 19.2 0.0
0.0 19.1 0.0
0.0 19.0 0.0
0.0 18.9 0.0
0.0 18.8 0.0
0.0 18.7 0.0
0.0 18.6 0.0
0.0 18.5 0.0
0.0 18.4 0.0
0.0 18.3 0.0
0.0 18.2 0.0
0.0 18.1 0.0
0.0 18.0 0.0
0.0 17.9 0.0
0.0 17.8 0.0
0.0 17.7 0.0
0.0 17.6 0.0
0.0 17.5 0.0
0.0 17.4 0.0
0.0 17.3 0.0
0.0 17.2 0.0
0.0 17.09999999999999 0.0
0.0 17.0 0.0
0.0 16.9 0.0
0.0 16.8 0.0
0.0 16.7 0.0
0.0 16.59999999999999 0.0
0.0 16.49999999999999 0.0
0.0 16.4 0.0
0.0 16.29999999999999 0.0
0.0 16.2 0.0
0.0 16.09999999999999 0.0
0.0 15.99999999999999 0.0
0.0 15.89999999999999 0.0
0.0 15.79999999999999 0.0
0.0 15.69999999999999 0.0
0.0 15.59999999999999 0.0
0.0 15.49999999999999 0.0
0.0 15.39999999999999 0.0
0.0 15.29999999999999 0.0
0.0 15.19999999999999 0.0
0.0 15.09999999999999 0.0
0.0 14.99999999999999 0.0
0.0 14.89999999999999 0.0
0.0 14.79999999999999 0.0
0.0 14.69999999999999 0.0
0.0 14.59999999999999 0.0
0.0 14.49999999999999 0.0
0.0 14.39999999999999 0.0
0.0 14.29999999999999 0.0
0.0 14.19999999999999 0.0
0.0 14.09999999999999 0.0
0.0 13.99999999999999 0.0
0.0 13.89999999999999 0.0
0.0 13.79999999999999 0.0
0.0 13.69999999999999 0.0
0.0 13.59999999999999 0.0
0.0 13.49999999999999 0.0
0.0 13.39999999999999 0.0
0.0 13.29999999999999 0.0
0.0 13.19999999999999 0.0
0.0 13.09999999999999 0.0
0.0 12.99999999999999 0.0
0.0 12.89999999999999 0.0
0.0 12.79999999999999 0.0
0.0 12.69999999999999 0.0
0.0 12.59999999999999 0.0
0.0 12.49999999999999 0.0
0.0 12.39999999999999 0.0
0.0 12.29999999999999 0.0
0.0 12.19999999999999 0.0
0.0 12.09999999999999 0.0
0.0 11.99999999999999 0.0
0.0 11.89999999999999 0.0
0.0 11.79999999999999 0.0
0.0 11.69999999999999 0.0
0.0 11.59999999999999 0.0
0.0 11.49999999999999 0.0
0.0 11.39999999999999 0.0
0.0 11.29999999999999 0.0
0.0 11.19999999999999 0.0
0.0 11.09999999999999 0.0
0.0 10.99999999999999 0.0
0.0 10.89999999999999 0.0
0.0 10.79999999999999 0.0
0.0 10.69999999999999 0.0
0.0 10.59999999999999 0.0
0.0 10.49999999999999 0.0
0.0 10.39999999999999 0.0
0.0 10.29999999999999 0.0
0.0 10.19999999999999 0.0
0.0 10.09999999999999 0.0
0.0 9.999999999999993 0.0
0.0 9.899999999999993 0.0
0.0 9.799999999999994 0.0
0.0 9.699999999999992 0.0
0.0 9.599999999999993 0.0
0.0 9.499999999999993 0.0
0.0 9.399999999999993 0.0
0.0 9.299999999999995 0.0
0.0 9.199999999999996 0.0
0.0 9.099999999999994 0.0
0.0 8.999999999999995 0.0
0.0 8.899999999999995 0.0
0.0 8.799999999999994 0.0
0.0 8.699999999999994 0.0
0.0 8.599999999999994 0.0
0.0 8.499999999999995 0.0
0.0 8.399999999999995 0.0
0.0 8.299999999999994 0.0
0.0 8.199999999999994 0.0
0.0 8.099999999999994 0.0
0.0 7.999999999999993 0.0
0.0 7.899999999999995 0.0
0.0 7.799999999999995 0.0
0.0 7.699999999999996 0.0
0.0 7.599999999999996 0.0
0.0 7.499999999999996 0.0
0.0 7.399999999999995 0.0
0.0 7.299999999999995 0.0
0.0 7.199999999999996 0.0
0.0 7.099999999999994 0.0
0.0 6.999999999999995 0.0
0.0 6.899999999999995 0.0
0.0 6.799999999999995 0.0
0.0 6.699999999999996 0.0
0.0 6.599999999999994 0.0
0.0 6.499999999999995 0.0
0.0 6.399999999999997 0.0
0.0 6.299999999999997 0.0
0.0 6.199999999999996 0.0
0.0 6.099999999999996 0.0
0.0 5.999999999999996 0.0
0.0 5.899999999999997 0.0
0.0 5.799999999999997 0.0
0.0 5.699999999999996 0.0
0.0 5.599999999999996 0.0
0.0 5.499999999999996 0.0
0.0 5.399999999999995 0.0
0.0 5.299999999999995 0.0
0.0 5.199999999999996 0.0
0.0 5.099999999999996 0.0
0.0 4.999999999999998 0.0
0.0 4.899999999999999 0.0
0.0 4.799999999999997 0.0
0.0 4.699999999999998 0.0
0.0 4.599999999999998 0.0
0.0 4.499999999999996 0.0
0.0 4.399999999999997 0.0
0.0 4.299999999999997 0.0
0.0 4.199999999999998 0.0
0.0 4.099999999999998 0.0
0.0 3.999999999999996 0.0
0.0 3.899999999999999 0.0
0.0 3.799999999999997 0.0
0.0 3.699999999999996 0.0
0.0 3.599999999999998 0.0
0.0 3.5 0.0
0.0 3.399999999999999 0.0
0.0 3.299999999999997 0.0
0.0 3.199999999999999 0.0
0.0 3.099999999999998 0.0
0.0 3.0 0.0
0.0 2.899999999999999 0.0
0.0 2.799999999999997 0.0
0.0 2.699999999999999 0.0
0.0 2.599999999999998 0.0
0.0 2.499999999999996 0.0
0.0 2.399999999999999 0.0
0.0 2.299999999999997 0.0
0.0 2.199999999999999 0.0
0.0 2.100000000000001 0.0
0.0 2.0 0.0
0.0 1.899999999999999 0.0
0.0 1.800000000000001 0.0
0.0 1.699999999999999 0.0
0.0 1.599999999999998 0.0
0.0 1.5 0.0
0.0 1.399999999999999 0.0
0.0 1.299999999999997 0.0
0.0 1.199999999999999 0.0
0.0 1.099999999999998 0.0
0.0 1.0 0.0
0.0 0.8999999999999986 0.0
0.0 0.8000000000000007 0.0
0.0 0.6999999999999993 0.0
0.0 0.6000000000000014 0.0
0.0 0.5 0.0
0.0 0.3999999999999986 0.0
0.0 0.3000000000000007 0.0
0.0 0.1999999999999993 0.0
[...]
POINT_DATA 804
VECTORS displacement double
0.0 0.0 0.0
0.0 0.0 0.0
0.0 0.001785002345824955 0.0
0.0 0.0017850023458249448 0.0
0.0 0.0 0.0
0.0 0.0 0.0
0.0 0.0017850023458249342 0.0
0.0 0.0017850023458249474 0.0
0.0 -6.150349784237429e-12 0.0
0.0 -1.1491750211883e-11 0.0
0.0 -1.832057870185227e-11 0.0
0.0 -2.3223942154359324e-11 0.0
0.0 -3.017830489301707e-11 0.0
0.0 -3.529102374242621e-11 0.0
0.0 -4.1732563027264675e-11 0.0
0.0 -4.7580528772851454e-11 0.0
0.0 -5.3182897323736484e-11 0.0
0.0 -5.983650330861376e-11 0.0
0.0 -6.480108426074306e-11 0.0
0.0 -7.181578983680507e-11 0.0
0.0 -7.676041834045804e-11 0.0
0.0 -8.34460111593285e-11 0.0
0.0 -8.901715889712564e-11 0.0
0.0 -9.488288881323601e-11 0.0
0.0 -1.0132736649008766e-10 0.0
0.0 -1.064182850655228e-10 0.0
0.0 -1.134018463331912e-10 0.0
0.0 -1.182865010872142e-10 0.0
0.0 -1.2510555174908072e-10 0.0
0.0 -1.3049565345813874e-10 0.0
0.0 -1.3656211218235607e-10 0.0
0.0 -1.4281067565530544e-10 0.0
0.0 -1.4807518806581836e-10 0.0
0.0 -1.5491734559761367e-10 0.0
0.0 -1.5990720900285127e-10 0.0
0.0 -1.6665900111219478e-10 0.0
0.0 -1.720751699754692e-10 0.0
0.0 -1.781638424081024e-10 0.0
0.0 -1.843312404816757e-10 0.0
0.0 -1.897467039247778e-10 0.0
0.0 -1.9636293358174926e-10 0.0
0.0 -2.0164652094180515e-10 0.0
0.0 -2.0806151157347732e-10 0.0
0.0 -2.138139353268225e-10 0.0
0.0 -2.196253638068726e-10 0.0
0.0 -2.259476448282465e-10 0.0
0.0 -2.3138468439785417e-10 0.0
0.0 -2.3777360808936426e-10 0.0
0.0 -2.4348209757726343e-10 0.0
0.0 -2.4932584852393614e-10 0.0
0.0 -2.5570568902286557e-10 0.0
0.0 -2.609473563382712e-10 0.0
0.0 -2.676673118532363e-10 0.0
0.0 -2.729716054401375e-10 0.0
0.0 -2.7922124908415496e-10 0.0
0.0 -2.85445217475101e-10 0.0
0.0 -2.9083595729509597e-10 0.0
0.0 -2.975752525689215e-10 0.0
0.0 -2.9689270265649817e-10 0.0
0.0 -2.6921565006450906e-10 0.0
0.0 -1.044069077008138e-10 0.0
0.0 5.957230328019697e-10 0.0
0.0 3.193417783641437e-09 0.0
0.0 1.1910870419887348e-08 0.0
0.0 3.878513575789116e-08 0.0
0.0 1.1564912197623865e-07 0.0
0.0 3.2071761553710466e-07 0.0
0.0 8.330862689438269e-07 0.0
0.0 2.0350308984148336e-06 0.0
0.0 4.686814263849793e-06 0.0
0.0 1.0194466928939923e-05 0.0
0.0 2.0967312637822854e-05 0.0
0.0 4.08078771160322e-05 0.0
0.0 7.518969897870044e-05 0.0
0.0 0.00013117889986107272 0.0
0.0 0.00021669711437551483 0.0
0.0 0.0003388909492106732 0.0
0.0 0.0005016445901969125 0.0
0.0 0.0007027493871725228 0.0
0.0 0.0009317791380083388 0.0
0.0 0.0011699990419078749 0.0
0.0 0.0013932986789702438 0.0
0.0 0.0015780267922289913 0.0
0.0 0.0017080284481905275 0.0
0.0 0.0017799682271877613 0.0
0.0 0.0018041365011609788 0.0
0.0 0.0017997952609924315 0.0
0.0 0.0017870016113846897 0.0
0.0 0.001779023616793843 0.0
0.0 0.0017792669980252777 0.0
0.0 0.0017838438338630635 0.0
0.0 0.001787305223091349 0.0
0.0 0.001787281184472753 0.0
0.0 0.001785212422349593 0.0
0.0 0.0017837818077528407 0.0
0.0 0.0017841064381185264 0.0
0.0 0.001785219694760987 0.0
0.0 0.0017856939359279622 0.0
0.0 0.0017852436493426803 0.0
0.0 0.0017846777898638774 0.0
0.0 0.001784680553243971 0.0
0.0 0.0017850673219886328 0.0
0.0 0.0017852497132446327 0.0
0.0 0.001785062405184755 0.0
0.0 0.0017848546119865092 0.0
0.0 0.0017849048581254196 0.0
0.0 0.0017850725824817048 0.0
0.0 0.0017850947434161623 0.0
0.0 0.0017849796880027237 0.0
0.0 0.0017849288617241554 0.0
0.0 0.001784999912079581 0.0
0.0 0.0017850557778409544 0.0
0.0 0.0017850153993691643 0.0
0.0 0.00178496484732389 0.0
0.0 0.0017849860933718412 0.0
0.0 0.0017850281740739435 0.0
0.0 0.0017850178712854636 0.0
0.0 0.0017849841576670058 0.0
0.0 0.0017849887490519443 0.0
0.0 0.001785015388763514 0.0
0.0 0.0017850134022566423 0.0
0.0 0.0017849923717622087 0.0
0.0 0.0017849935107689696 0.0
0.0 0.0017850101934550023 0.0
0.0 0.0017850089914259655 0.0
0.0 0.0017849957071248651 0.0
0.0 0.0017849973974124432 0.0
0.0 0.0017850079758177527 0.0
0.0 0.0017850056515872881 0.0
0.0 0.0017849973243283161 0.0
0.0 0.0017850002722208157 0.0
0.0 0.00178500664572533 0.0
0.0 0.0017850032121847664 0.0
0.0 0.001784998592610479 0.0
0.0 0.001785002311349925 0.0
0.0 0.0017850053523293108 0.0
0.0 0.0017850015876183139 0.0
0.0 0.0017849999710505594 0.0
0.0 0.0017850035295543716 0.0
0.0 0.0017850039052874761 0.0
0.0 0.0017850008226691849 0.0
0.0 0.0017850014472864087 0.0
0.0 0.0017850038372798336 0.0
0.0 0.0017850025221688049 0.0
0.0 0.0017850009612655965 0.0
0.0 0.0017850026379276748 0.0
0.0 0.00178500333983525 0.0
0.0 0.0017850016374798738 0.0
0.0 0.0017850017308837065 0.0
0.0 0.001785003149377022 0.0
0.0 0.0017850024547243076 0.0
0.0 0.0017850015551713772 0.0
0.0 0.0017850025632855143 0.0
0.0 0.001785002861157801 0.0
0.0 0.0017850018570208788 0.0
0.0 0.0017850020943804526 0.0
0.0 0.0017850028448341815 0.0
0.0 0.0017850022537924913 0.0
0.0 0.0017850019135568576 0.0
0.0 0.00178500261948477 0.0
0.0 0.0017850025231380296 0.0
0.0 0.0017850019600215755 0.0
0.0 0.0017850023798912588 0.0
0.0 0.00178500262026694 0.0
0.0 0.0017850021082015924 0.0
0.0 0.0017850022203648192 0.0
0.0 0.001785002594049462 0.0
0.0 0.0017850022619042413 0.0
0.0 0.0017850021527032025 0.0
0.0 0.0017850025123920998 0.0
0.0 0.0017850023748771824 0.0
0.0 0.0017850021511485452 0.0
0.0 0.0017850024243090572 0.0
0.0 0.0017850024393349234 0.0
0.0 0.0017850021827103704 0.0
0.0 0.0017850023553313977 0.0
0.0 0.0017850024642751192 0.0
0.0 0.0017850022241049201 0.0
0.0 0.0017850023113521539 0.0
0.0 0.001785002464495161 0.0
0.0 0.0017850022615020725 0.0
0.0 0.0017850022900451539 0.0
0.0 0.0017850024511751157 0.0
0.0 0.0017850022908160697 0.0
0.0 0.0017850022842015637 0.0
0.0 0.0017850024331383077 0.0
0.0 0.0017850023110838656 0.0
0.0 0.0017850022882432528 0.0
0.0 0.0017850024142444998 0.0
0.0 0.0017850023247718751 0.0
0.0 0.0017850022965719874 0.0
0.0 0.0017850023974483051 0.0
0.0 0.0017850023332201012 0.0
0.0 0.0017850023067288731 0.0
0.0 0.0017850023828466328 0.0
0.0 0.001785002338815598 0.0
0.0 0.0017850023162890886 0.0
0.0 0.001785002371124196 0.0
0.0 0.0017850023420721934 0.0
0.0 0.0017850023251647469 0.0
0.0 0.0017850023612813813 0.0
0.0 0.0017850023443151566 0.0
0.0 0.0017850023326660012 0.0
0.0 0.001785002353379878 0.0
0.0 0.0017850023453155554 0.0
0.0 0.0017850023397002262 0.0
0.0 0.001785002346208412 0.0
0.0 0.00178500234620841 0.0
0.0 0.0017850023397002303 0.0
0.0 0.0017850023453155526 0.0
0.0 0.0017850023533798672 0.0
0.0 0.0017850023326660006 0.0
0.0 0.0017850023443151627 0.0
0.0 0.0017850023612813793 0.0
0.0 0.001785002325164765 0.0
0.0 0.0017850023420721889 0.0
0.0 0.0017850023711242057 0.0
0.0 0.0017850023162890938 0.0
0.0 0.0017850023388155955 0.0
0.0 0.0017850023828466096 0.0
0.0 0.0017850023067288734 0.0
0.0 0.0017850023332201155 0.0
0.0 0.0017850023974483142 0.0
0.0 0.0017850022965719796 0.0
0.0 0.001785002324771886 0.0
0.0 0.0017850024142444943 0.0
0.0 0.001785002288243251 0.0
0.0 0.00178500231108386 0.0
0.0 0.0017850024331383183 0.0
0.0 0.0017850022842015767 0.0
0.0 0.0017850022908160674 0.0
0.0 0.0017850024511751167 0.0
0.0 0.0017850022900451595 0.0
0.0 0.001785002261502067 0.0
0.0 0.001785002464495158 0.0
0.0 0.0017850023113521517 0.0
0.0 0.0017850022241049336 0.0
0.0 0.001785002464275125 0.0
0.0 0.0017850023553313845 0.0
0.0 0.001785002182710388 0.0
0.0 0.0017850024393349523 0.0
0.0 0.0017850024243090622 0.0
0.0 0.0017850021511485283 0.0
0.0 0.0017850023748771787 0.0
0.0 0.0017850025123921124 0.0
0.0 0.0017850021527032111 0.0
0.0 0.0017850022619042443 0.0
0.0 0.0017850025940494671 0.0
0.0 0.0017850022203648186 0.0
0.0 0.0017850021082015828 0.0
0.0 0.0017850026202669378 0.0
0.0 0.0017850023798912686 0.0
0.0 0.00178500196002159 0.0
0.0 0.0017850025231380435 0.0
0.0 0.0017850026194847666 0.0
0.0 0.0017850019135568751 0.0
0.0 0.0017850022537924698 0.0
0.0 0.0017850028448341828 0.0
0.0 0.001785002094380466 0.0
0.0 0.0017850018570208868 0.0
0.0 0.0017850028611578017 0.0
0.0 0.001785002563285521 0.0
0.0 0.001785001555171375 0.0
0.0 0.0017850024547243109 0.0
0.0 0.0017850031493770076 0.0
0.0 0.001785001730883718 0.0
0.0 0.0017850016374798708 0.0
0.0 0.001785003339835252 0.0
0.0 0.0017850026379276779 0.0
0.0 0.0017850009612655929 0.0
0.0 0.0017850025221688084 0.0
0.0 0.0017850038372798436 0.0
0.0 0.001785001447286422 0.0
0.0 0.0017850008226691677 0.0
0.0 0.0017850039052874865 0.0
0.0 0.0017850035295543575 0.0
0.0 0.001784999971050569 0.0
0.0 0.0017850015876183178 0.0
0.0 0.0017850053523292963 0.0
0.0 0.0017850023113499232 0.0
0.0 0.0017849985926104682 0.0
0.0 0.0017850032121847553 0.0
0.0 0.0017850066457253235 0.0
0.0 0.0017850002722208111 0.0
0.0 0.0017849973243282817 0.0
0.0 0.0017850056515872773 0.0
0.0 0.0017850079758177668 0.0
0.0 0.0017849973974124432 0.0
0.0 0.001784995707124857 0.0
0.0 0.001785008991425988 0.0
0.0 0.0017850101934550025 0.0
0.0 0.0017849935107689808 0.0
0.0 0.0017849923717621961 0.0
0.0 0.0017850134022566416 0.0
0.0 0.0017850153887635134 0.0
0.0 0.0017849887490519636 0.0
0.0 0.0017849841576670102 0.0
0.0 0.001785017871285467 0.0
0.0 0.0017850281740739496 0.0
0.0 0.001784986093371855 0.0
0.0 0.0017849648473239024 0.0
0.0 0.0017850153993691545 0.0
0.0 0.0017850557778409494 0.0
0.0 0.001784999912079588 0.0
0.0 0.0017849288617241496 0.0
0.0 0.001784979688002715 0.0
0.0 0.0017850947434161486 0.0
0.0 0.001785072582481725 0.0
0.0 0.0017849048581254578 0.0
0.0 0.0017848546119864934 0.0
0.0 0.0017850624051847265 0.0
0.0 0.0017852497132446294 0.0
0.0 0.001785067321988688 0.0
0.0 0.001784680553244008 0.0
0.0 0.0017846777898638348 0.0
0.0 0.0017852436493425666 0.0
0.0 0.0017856939359279563 0.0
0.0 0.0017852196947611503 0.0
0.0 0.0017841064381187031 0.0
0.0 0.0017837818077527578 0.0
0.0 0.001785212422349237 0.0
0.0 0.0017872811844724947 0.0
0.0 0.001787305223091666 0.0
0.0 0.0017838438338639323 0.0
0.0 0.001779266998025875 0.0
0.0 0.0017790236167931808 0.0
0.0 0.0017870016113825792 0.0
0.0 0.001799795260990405 0.0
0.0 0.0018041365011621058 0.0
0.0 0.0017799682271955719 0.0
0.0 0.0017080284482074825 0.0
0.0 0.001578026792255377 0.0
0.0 0.0013932986790040416 0.0
0.0 0.001169999041945435 0.0
0.0 0.0009317791380455834 0.0
0.0 0.0007027493872060098 0.0
0.0 0.0005016445902245384 0.0
0.0 0.00033889094923173613 0.0
0.0 0.00021669711439043835 0.0
0.0 0.00013117889987094148 0.0
0.0 7.518969898481031e-05 0.0
0.0 4.080787711958133e-05 0.0
0.0 2.0967312639760486e-05 0.0
0.0 1.0194466929934648e-05 0.0
0.0 4.686814264330224e-06 0.0
0.0 2.035030898633138e-06 0.0
0.0 8.33086269037077e-07 0.0
0.0 3.207176155744425e-07 0.0
0.0 1.1564912199024038e-07 0.0
0.0 3.8785135762811654e-08 0.0
0.0 1.1910870421516425e-08 0.0
0.0 3.1934177841458213e-09 0.0
0.0 5.957230329462166e-10 0.0
0.0 -1.0440690765789684e-10 0.0
0.0 -2.6921565004860853e-10 0.0
0.0 -2.9689270264571457e-10 0.0
0.0 -2.975752525634636e-10 0.0
0.0 -2.9083595730574685e-10 0.0
0.0 -2.854452174917905e-10 0.0
0.0 -2.7922124909728837e-10 0.0
0.0 -2.729716054547288e-10 0.0
0.0 -2.6766731186188836e-10 0.0
0.0 -2.609473563373607e-10 0.0
0.0 -2.5570568901827653e-10 0.0
0.0 -2.493258485175903e-10 0.0
0.0 -2.434820975829325e-10 0.0
0.0 -2.3777360811753286e-10 0.0
0.0 -2.3138468443751735e-10 0.0
0.0 -2.2594764485024426e-10 0.0
0.0 -2.196253638042245e-10 0.0
0.0 -2.1381393533359404e-10 0.0
0.0 -2.0806151158522506e-10 0.0
0.0 -2.0164652093091824e-10 0.0
0.0 -1.963629335670855e-10 0.0
0.0 -1.8974670392653977e-10 0.0
0.0 -1.8433124049112912e-10 0.0
0.0 -1.7816384240839216e-10 0.0
0.0 -1.7207516996009157e-10 0.0
0.0 -1.6665900110141326e-10 0.0
0.0 -1.5990720901048087e-10 0.0
0.0 -1.5491734560147425e-10 0.0
0.0 -1.4807518805390915e-10 0.0
0.0 -1.4281067565269809e-10 0.0
0.0 -1.3656211220204886e-10 0.0
0.0 -1.3049565347380955e-10 0.0
0.0 -1.2510555174571306e-10 0.0
0.0 -1.1828650108259375e-10 0.0
0.0 -1.1340184633394376e-10 0.0
0.0 -1.0641828505957451e-10 0.0
0.0 -1.0132736647683936e-10 0.0
0.0 -9.488288880601368e-11 0.0
0.0 -8.901715890230153e-11 0.0
0.0 -8.344601117236203e-11 0.0
0.0 -7.676041835420577e-11 0.0
0.0 -7.181578984756953e-11 0.0
0.0 -6.480108426792437e-11 0.0
0.0 -5.98365033116373e-11 0.0
0.0 -5.3182897325284604e-11 0.0
0.0 -4.758052877339166e-11 0.0
0.0 -4.1732563025668184e-11 0.0
0.0 -3.5291023740089885e-11 0.0
0.0 -3.0178304889642206e-11 0.0
0.0 -2.3223942155098497e-11 0.0
0.0 -1.8320578710963697e-11 0.0
0.0 -1.149175021603914e-11 0.0
0.0 -6.150349777498449e-12 0.0
0.0 -6.150349794963155e-12 0.0
0.0 -1.1491750225659384e-11 0.0
0.0 -1.832057871118092e-11 0.0
0.0 -2.3223942159116885e-11 0.0
0.0 -3.0178304897785295e-11 0.0
0.0 -3.529102374683188e-11 0.0
0.0 -4.173256302653989e-11 0.0
0.0 -4.758052876427947e-11 0.0
0.0 -5.3182897312205786e-11 0.0
0.0 -5.98365033001693e-11 0.0
0.0 -6.480108425399703e-11 0.0
0.0 -7.181578983559868e-11 0.0
0.0 -7.676041835008709e-11 0.0
0.0 -8.344601117013712e-11 0.0
0.0 -8.901715889867277e-11 0.0
0.0 -9.488288881044672e-11 0.0
0.0 -1.0132736648899788e-10 0.0
0.0 -1.0641828506837134e-10 0.0
0.0 -1.1340184634096565e-10 0.0
0.0 -1.1828650109113755e-10 0.0
0.0 -1.2510555174213157e-10 0.0
0.0 -1.3049565344560406e-10 0.0
0.0 -1.3656211217141751e-10 0.0
0.0 -1.428106756522521e-10 0.0
0.0 -1.4807518806777968e-10 0.0
0.0 -1.5491734559158968e-10 0.0
0.0 -1.5990720898997008e-10 0.0
0.0 -1.6665900110680924e-10 0.0
0.0 -1.7207516998109477e-10 0.0
0.0 -1.7816384242086783e-10 0.0
0.0 -1.8433124049904483e-10 0.0
0.0 -1.8974670393700397e-10 0.0
0.0 -1.9636293358004064e-10 0.0
0.0 -2.0164652093211504e-10 0.0
0.0 -2.0806151156642224e-10 0.0
0.0 -2.1381393532431383e-10 0.0
0.0 -2.1962536381404707e-10 0.0
0.0 -2.259476448469422e-10 0.0
0.0 -2.3138468441412024e-10 0.0
0.0 -2.3777360809455353e-10 0.0
0.0 -2.434820975722946e-10 0.0
0.0 -2.4932584851312147e-10 0.0
0.0 -2.557056890168504e-10 0.0
0.0 -2.609473563527571e-10 0.0
0.0 -2.6766731187591305e-10 0.0
0.0 -2.729716054574481e-10 0.0
0.0 -2.792212491064275e-10 0.0
0.0 -2.854452174880643e-10 0.0
0.0 -2.9083595728343846e-10 0.0
0.0 -2.9757525255189774e-10 0.0
0.0 -2.9689270266113157e-10 0.0
0.0 -2.692156500818471e-10 0.0
0.0 -1.0440690770991253e-10 0.0
0.0 5.95723032793295e-10 0.0
0.0 3.193417783634187e-09 0.0
0.0 1.1910870419899901e-08 0.0
0.0 3.8785135757908504e-08 0.0
0.0 1.1564912197624127e-07 0.0
0.0 3.2071761553711223e-07 0.0
0.0 8.33086268943875e-07 0.0
0.0 2.035030898414853e-06 0.0
0.0 4.686814263849791e-06 0.0
0.0 1.0194466928939989e-05 0.0
0.0 2.096731263782286e-05 0.0
0.0 4.080787711603208e-05 0.0
0.0 7.518969897870043e-05 0.0
0.0 0.00013117889986107248 0.0
0.0 0.00021669711437551415 0.0
0.0 0.00033889094921067355 0.0
0.0 0.0005016445901969117 0.0
0.0 0.0007027493871725224 0.0
0.0 0.0009317791380083397 0.0
0.0 0.0011699990419078707 0.0
0.0 0.0013932986789702423 0.0
0.0 0.0015780267922289944 0.0
0.0 0.0017080284481905304 0.0
0.0 0.0017799682271877574 0.0
0.0 0.001804136501160976 0.0
0.0 0.0017997952609924387 0.0
0.0 0.0017870016113847001 0.0
0.0 0.0017790236167938506 0.0
0.0 0.0017792669980252664 0.0
0.0 0.0017838438338630806 0.0
0.0 0.001787305223091353 0.0
0.0 0.0017872811844727534 0.0
0.0 0.001785212422349601 0.0
0.0 0.0017837818077528435 0.0
0.0 0.0017841064381185336 0.0
0.0 0.0017852196947609924 0.0
0.0 0.0017856939359279628 0.0
0.0 0.0017852436493426772 0.0
0.0 0.0017846777898638862 0.0
0.0 0.0017846805532439514 0.0
0.0 0.0017850673219886194 0.0
0.0 0.0017852497132446283 0.0
0.0 0.0017850624051847666 0.0
0.0 0.0017848546119865127 0.0
0.0 0.0017849048581254274 0.0
0.0 0.0017850725824817093 0.0
0.0 0.0017850947434161647 0.0
0.0 0.0017849796880027348 0.0
0.0 0.0017849288617241385 0.0
0.0 0.0017849999120795764 0.0
0.0 0.0017850557778409505 0.0
0.0 0.001785015399369158 0.0
0.0 0.0017849648473238994 0.0
0.0 0.001784986093371849 0.0
0.0 0.0017850281740739453 0.0
0.0 0.0017850178712854577 0.0
0.0 0.0017849841576670052 0.0
0.0 0.00178498874905195 0.0
0.0 0.0017850153887635034 0.0
0.0 0.001785013402256644 0.0
0.0 0.00178499237176221 0.0
0.0 0.0017849935107689713 0.0
0.0 0.0017850101934549967 0.0
0.0 0.0017850089914259793 0.0
0.0 0.001784995707124856 0.0
0.0 0.0017849973974124345 0.0
0.0 0.0017850079758177607 0.0
0.0 0.0017850056515872892 0.0
0.0 0.0017849973243282875 0.0
0.0 0.001785000272220803 0.0
0.0 0.001785006645725326 0.0
0.0 0.001785003212184757 0.0
0.0 0.0017849985926104669 0.0
0.0 0.0017850023113499195 0.0
0.0 0.0017850053523292947 0.0
0.0 0.0017850015876183104 0.0
0.0 0.0017849999710505572 0.0
0.0 0.001785003529554358 0.0
0.0 0.001785003905287482 0.0
0.0 0.0017850008226691597 0.0
0.0 0.0017850014472864163 0.0
0.0 0.0017850038372798501 0.0
0.0 0.0017850025221688016 0.0
0.0 0.0017850009612655922 0.0
0.0 0.0017850026379276694 0.0
0.0 0.0017850033398352358 0.0
0.0 0.0017850016374798695 0.0
0.0 0.0017850017308837188 0.0
0.0 0.0017850031493770143 0.0
0.0 0.0017850024547243087 0.0
0.0 0.0017850015551713735 0.0
0.0 0.0017850025632855182 0.0
0.0 0.0017850028611577872 0.0
0.0 0.0017850018570208757 0.0
0.0 0.0017850020943804624 0.0
0.0 0.0017850028448341876 0.0
0.0 0.0017850022537924785 0.0
0.0 0.0017850019135568862 0.0
0.0 0.001785002619484772 0.0
0.0 0.0017850025231380376 0.0
0.0 0.0017850019600215877 0.0
0.0 0.0017850023798912675 0.0
0.0 0.0017850026202669354 0.0
0.0 0.0017850021082015926 0.0
0.0 0.0017850022203648316 0.0
0.0 0.001785002594049461 0.0
0.0 0.0017850022619042305 0.0
0.0 0.001785002152703204 0.0
0.0 0.0017850025123921094 0.0
0.0 0.0017850023748771848 0.0
0.0 0.0017850021511485402 0.0
0.0 0.0017850024243090614 0.0
0.0 0.0017850024393349475 0.0
0.0 0.0017850021827103782 0.0
0.0 0.0017850023553313958 0.0
0.0 0.0017850024642751341 0.0
0.0 0.0017850022241049238 0.0
0.0 0.0017850023113521471 0.0
0.0 0.0017850024644951686 0.0
0.0 0.001785002261502075 0.0
0.0 0.0017850022900451636 0.0
0.0 0.0017850024511751146 0.0
0.0 0.0017850022908160708 0.0
0.0 0.0017850022842015698 0.0
0.0 0.0017850024331383255 0.0
0.0 0.0017850023110838646 0.0
0.0 0.001785002288243252 0.0
0.0 0.0017850024142445032 0.0
0.0 0.0017850023247718847 0.0
0.0 0.001785002296571984 0.0
0.0 0.0017850023974483157 0.0
0.0 0.001785002333220116 0.0
0.0 0.0017850023067288807 0.0
0.0 0.0017850023828466233 0.0
0.0 0.0017850023388155984 0.0
0.0 0.001785002316289097 0.0
0.0 0.0017850023711241999 0.0
0.0 0.0017850023420721843 0.0
0.0 0.0017850023251647596 0.0
0.0 0.0017850023612813808 0.0
0.0 0.0017850023443151612 0.0
0.0 0.0017850023326660086 0.0
0.0 0.0017850023533798713 0.0
0.0 0.001785002345315561 0.0
0.0 0.0017850023397002301 0.0
0.0 0.0017850023462083983 0.0
0.0 0.0017850023462084067 0.0
0.0 0.0017850023397002193 0.0
0.0 0.0017850023453155428 0.0
0.0 0.0017850023533798685 0.0
0.0 0.0017850023326659995 0.0
0.0 0.0017850023443151662 0.0
0.0 0.0017850023612813821 0.0
0.0 0.0017850023251647445 0.0
0.0 0.0017850023420722004 0.0
0.0 0.0017850023711242049 0.0
0.0 0.00178500231628909 0.0
0.0 0.001785002338815598 0.0
0.0 0.0017850023828466302 0.0
0.0 0.001785002306728872 0.0
0.0 0.0017850023332201064 0.0
0.0 0.0017850023974483034 0.0
0.0 0.001785002296571979 0.0
0.0 0.0017850023247718786 0.0
0.0 0.0017850024142445034 0.0
0.0 0.0017850022882432521 0.0
0.0 0.0017850023110838702 0.0
0.0 0.001785002433138306 0.0
0.0 0.0017850022842015622 0.0
0.0 0.0017850022908160567 0.0
0.0 0.001785002451175127 0.0
0.0 0.0017850022900451471 0.0
0.0 0.0017850022615020751 0.0
0.0 0.001785002464495172 0.0
0.0 0.0017850023113521447 0.0
0.0 0.001785002224104924 0.0
0.0 0.0017850024642751196 0.0
0.0 0.0017850023553313906 0.0
0.0 0.001785002182710365 0.0
0.0 0.001785002439334931 0.0
0.0 0.0017850024243090533 0.0
0.0 0.001785002151148555 0.0
0.0 0.0017850023748771844 0.0
0.0 0.0017850025123920929 0.0
0.0 0.0017850021527031986 0.0
0.0 0.0017850022619042337 0.0
0.0 0.0017850025940494613 0.0
0.0 0.0017850022203648116 0.0
0.0 0.001785002108201588 0.0
0.0 0.0017850026202669224 0.0
0.0 0.0017850023798912575 0.0
0.0 0.0017850019600215775 0.0
0.0 0.0017850025231380302 0.0
0.0 0.0017850026194847612 0.0
0.0 0.001785001913556857 0.0
0.0 0.0017850022537924818 0.0
0.0 0.001785002844834181 0.0
0.0 0.0017850020943804457 0.0
0.0 0.001785001857020874 0.0
0.0 0.0017850028611578086 0.0
0.0 0.0017850025632855286 0.0
0.0 0.0017850015551713668 0.0
0.0 0.001785002454724299 0.0