# vtk DataFile Version 2.0
data_764
ASCII
DATASET UNSTRUCTURED_GRID
POINTS 804 float
0.0 0.0 0.0
0.1 0.0 0.0
0.1 20.0 0.0
0.0 20.0 0.0
0.0 0.0 -0.1
0.1 0.0 -0.1
0.1 20.0 -0.1
0.0 20.0 -0.1
0.1 0.09999999999992462 0.0
0.1 0.1999999999998517 0.0
0.1 0.2999999999997818 0.0
0.1 0.399999999999712 0.0
0.1 0.4999999999996377 0.0
0.1 0.5999999999995541 0.0
0.1 0.6999999999994495 0.0
0.1 0.7999999999993355 0.0
0.1 0.8999999999992101 0.0
0.1 0.999999999999102 0.0
0.1 1.099999999999006 0.0
0.1 1.199999999998936 0.0
0.1 1.299999999998867 0.0
0.1 1.399999999998797 0.0
0.1 1.499999999998727 0.0
0.1 1.599999999998657 0.0
0.1 1.699999999998587 0.0
0.1 1.799999999998517 0.0
0.1 1.899999999998447 0.0
0.1 1.999999999998378 0.0
0.1 2.099999999998308 0.0
0.1 2.199999999998238 0.0
0.1 2.299999999998168 0.0
0.1 2.399999999998067 0.0
0.1 2.499999999997942 0.0
0.1 2.599999999997706 0.0
0.1 2.699999999997444 0.0
0.1 2.799999999997153 0.0
0.1 2.899999999996861 0.0
0.1 2.999999999996569 0.0
0.1 3.099999999996277 0.0
0.1 3.199999999995984 0.0
0.1 3.299999999995693 0.0
0.1 3.399999999995401 0.0
0.1 3.499999999995108 0.0
0.1 3.599999999994816 0.0
0.1 3.699999999994525 0.0
0.1 3.799999999994232 0.0
0.1 3.89999999999394 0.0
0.1 3.999999999993648 0.0
0.1 4.099999999993356 0.0
0.1 4.199999999993064 0.0
0.1 4.299999999992772 0.0
0.1 4.399999999992479 0.0
0.1 4.499999999992188 0.0
0.1 4.599999999991895 0.0
0.1 4.699999999991603 0.0
0.1 4.799999999991311 0.0
0.1 4.899999999991019 0.0
0.1 4.999999999990727 0.0
0.1 5.099999999990436 0.0
0.1 5.199999999990144 0.0
0.1 5.299999999989851 0.0
0.1 5.399999999989559 0.0
0.1 5.499999999989267 0.0
0.1 5.599999999988975 0.0
0.1 5.699999999988683 0.0
0.1 5.799999999988391 0.0
0.1 5.899999999988099 0.0
0.1 5.999999999987806 0.0
0.1 6.099999999987515 0.0
0.1 6.199999999987222 0.0
0.1 6.299999999986929 0.0
0.1 6.399999999986638 0.0
0.1 6.499999999986345 0.0
0.1 6.599999999986054 0.0
0.1 6.699999999985762 0.0
0.1 6.79999999998547 0.0
0.1 6.899999999985177 0.0
0.1 6.999999999984885 0.0
0.1 7.099999999984593 0.0
0.1 7.199999999984302 0.0
0.1 7.299999999984009 0.0
0.1 7.399999999983717 0.0
0.1 7.499999999983426 0.0
0.1 7.599999999983132 0.0
0.1 7.699999999982841 0.0
0.1 7.799999999982549 0.0
0.1 7.899999999982256 0.0
0.1 7.999999999982034 0.0
0.1 8.099999999981964 0.0
0.1 8.199999999982062 0.0
0.1 8.299999999982214 0.0
0.1 8.399999999982366 0.0
0.1 8.499999999982517 0.0
0.1 8.59999999998267 0.0
0.1 8.699999999982822 0.0
0.1 8.799999999982973 0.0
0.1 8.899999999983125 0.0
0.1 8.999999999983277 0.0
0.1 9.09999999998343 0.0
0.1 9.19999999998358 0.0
0.1 9.299999999983733 0.0
0.1 9.399999999983885 0.0
0.1 9.499999999984038 0.0
0.1 9.599999999984188 0.0
0.1 9.69999999998434 0.0
0.1 9.799999999984493 0.0
0.1 9.899999999984646 0.0
0.1 9.999999999984798 0.0
0.1 10.09999999998495 0.0
0.1 10.1999999999851 0.0
0.1 10.29999999998525 0.0
0.1 10.39999999998541 0.0
0.1 10.49999999998556 0.0
0.1 10.59999999998571 0.0
0.1 10.69999999998586 0.0
0.1 10.79999999998601 0.0
0.1 10.89999999998616 0.0
0.1 10.99999999998632 0.0
0.1 11.09999999998647 0.0
0.1 11.19999999998662 0.0
0.1 11.29999999998677 0.0
0.1 11.39999999998693 0.0
0.1 11.49999999998708 0.0
0.1 11.59999999998723 0.0
0.1 11.69999999998738 0.0
0.1 11.79999999998754 0.0
0.1 11.89999999998769 0.0
0.1 11.99999999998784 0.0
0.1 12.09999999998799 0.0
0.1 12.19999999998814 0.0
0.1 12.2999999999883 0.0
0.1 12.39999999998845 0.0
0.1 12.4999999999886 0.0
0.1 12.59999999998875 0.0
0.1 12.6999999999889 0.0
0.1 12.79999999998905 0.0
0.1 12.89999999998921 0.0
0.1 12.99999999998936 0.0
0.1 13.09999999998951 0.0
0.1 13.19999999998966 0.0
0.1 13.29999999998982 0.0
0.1 13.39999999998997 0.0
0.1 13.49999999999012 0.0
0.1 13.59999999999027 0.0
0.1 13.69999999999042 0.0
0.1 13.79999999999057 0.0
0.1 13.89999999999073 0.0
0.1 13.99999999999088 0.0
0.1 14.09999999999103 0.0
0.1 14.19999999999118 0.0
0.1 14.29999999999134 0.0
0.1 14.39999999999149 0.0
0.1 14.49999999999164 0.0
0.1 14.59999999999179 0.0
0.1 14.69999999999194 0.0
0.1 14.7999999999921 0.0
0.1 14.89999999999225 0.0
0.1 14.9999999999924 0.0
0.1 15.09999999999255 0.0
0.1 15.1999999999927 0.0
0.1 15.29999999999285 0.0
0.1 15.39999999999301 0.0
0.1 15.49999999999316 0.0
0.1 15.59999999999331 0.0
0.1 15.69999999999346 0.0
0.1 15.79999999999362 0.0
0.1 15.89999999999377 0.0
0.1 15.99999999999392 0.0
0.1 16.09999999999407 0.0
0.1 16.19999999999422 0.0
0.1 16.29999999999437 0.0
0.1 16.39999999999453 0.0
0.1 16.49999999999468 0.0
0.1 16.59999999999483 0.0
0.1 16.69999999999498 0.0
0.1 16.79999999999514 0.0
0.1 16.89999999999528 0.0
0.1 16.99999999999544 0.0
0.1 17.09999999999559 0.0
0.1 17.19999999999574 0.0
0.1 17.29999999999589 0.0
0.1 17.39999999999605 0.0
0.1 17.4999999999962 0.0
0.1 17.59999999999635 0.0
0.1 17.6999999999965 0.0
0.1 17.79999999999665 0.0
0.1 17.89999999999681 0.0
0.1 17.99999999999696 0.0
0.1 18.09999999999711 0.0
0.1 18.19999999999726 0.0
0.1 18.29999999999742 0.0
0.1 18.39999999999757 0.0
0.1 18.49999999999772 0.0
0.1 18.59999999999787 0.0
0.1 18.69999999999802 0.0
0.1 18.79999999999818 0.0
0.1 18.89999999999833 0.0
0.1 18.99999999999848 0.0
0.1 19.09999999999863 0.0
0.1 19.19999999999878 0.0
0.1 19.29999999999894 0.0
0.1 19.39999999999909 0.0
0.1 19.49999999999924 0.0
0.1 19.59999999999939 0.0
0.1 19.69999999999955 0.0
0.1 19.7999999999997 0.0
0.1 19.89999999999985 0.0
0.0 19.9 0.0
0.0 19.8 0.0
0.0 19.7 0.0
0.0 19.6 0.0
0.0 19.5 0.0
0.0 19.4 0.0
0.0 19.3 0.0
0.0 19.2 0.0
0.0 19.1 0.0
0.0 19.0 0.0
0.0 18.9 0.0
0.0 18.8 0.0
0.0 18.7 0.0
0.0 18.6 0.0
0.0 18.5 0.0
0.0 18.4 0.0
0.0 18.3 0.0
0.0 18.2 0.0
0.0 18.1 0.0
0.0 18.0 0.0
0.0 17.9 0.0
0.0 17.8 0.0
0.0 17.7 0.0
0.0 17.6 0.0
0.0 17.5 0.0
0.0 17.4 0.0
0.0 17.3 0.0
0.0 17.2 0.0
0.0 17.09999999999999 0.0
0.0 17.0 0.0
0.0 16.9 0.0
0.0 16.8 0.0
0.0 16.7 0.0
0.0 16.59999999999999 0.0
0.0 16.49999999999999 0.0
0.0 16.4 0.0
0.0 16.29999999999999 0.0
0.0 16.2 0.0
0.0 16.09999999999999 0.0
0.0 15.99999999999999 0.0
0.0 15.89999999999999 0.0
0.0 15.79999999999999 0.0
0.0 15.69999999999999 0.0
0.0 15.59999999999999 0.0
0.0 15.49999999999999 0.0
0.0 15.39999999999999 0.0
0.0 15.29999999999999 0.0
0.0 15.19999999999999 0.0
0.0 15.09999999999999 0.0
0.0 14.99999999999999 0.0
0.0 14.89999999999999 0.0
0.0 14.79999999999999 0.0
0.0 14.69999999999999 0.0
0.0 14.59999999999999 0.0
0.0 14.49999999999999 0.0
0.0 14.39999999999999 0.0
0.0 14.29999999999999 0.0
0.0 14.19999999999999 0.0
0.0 14.09999999999999 0.0
0.0 13.99999999999999 0.0
0.0 13.89999999999999 0.0
0.0 13.79999999999999 0.0
0.0 13.69999999999999 0.0
0.0 13.59999999999999 0.0
0.0 13.49999999999999 0.0
0.0 13.39999999999999 0.0
0.0 13.29999999999999 0.0
0.0 13.19999999999999 0.0
0.0 13.09999999999999 0.0
0.0 12.99999999999999 0.0
0.0 12.89999999999999 0.0
0.0 12.79999999999999 0.0
0.0 12.69999999999999 0.0
0.0 12.59999999999999 0.0
0.0 12.49999999999999 0.0
0.0 12.39999999999999 0.0
0.0 12.29999999999999 0.0
0.0 12.19999999999999 0.0
0.0 12.09999999999999 0.0
0.0 11.99999999999999 0.0
0.0 11.89999999999999 0.0
0.0 11.79999999999999 0.0
0.0 11.69999999999999 0.0
0.0 11.59999999999999 0.0
0.0 11.49999999999999 0.0
0.0 11.39999999999999 0.0
0.0 11.29999999999999 0.0
0.0 11.19999999999999 0.0
0.0 11.09999999999999 0.0
0.0 10.99999999999999 0.0
0.0 10.89999999999999 0.0
0.0 10.79999999999999 0.0
0.0 10.69999999999999 0.0
0.0 10.59999999999999 0.0
0.0 10.49999999999999 0.0
0.0 10.39999999999999 0.0
0.0 10.29999999999999 0.0
0.0 10.19999999999999 0.0
0.0 10.09999999999999 0.0
0.0 9.999999999999993 0.0
0.0 9.899999999999993 0.0
0.0 9.799999999999994 0.0
0.0 9.699999999999992 0.0
0.0 9.599999999999993 0.0
0.0 9.499999999999993 0.0
0.0 9.399999999999993 0.0
0.0 9.299999999999995 0.0
0.0 9.199999999999996 0.0
0.0 9.099999999999994 0.0
0.0 8.999999999999995 0.0
0.0 8.899999999999995 0.0
0.0 8.799999999999994 0.0
0.0 8.699999999999994 0.0
0.0 8.599999999999994 0.0
0.0 8.499999999999995 0.0
0.0 8.399999999999995 0.0
0.0 8.299999999999994 0.0
0.0 8.199999999999994 0.0
0.0 8.099999999999994 0.0
0.0 7.999999999999993 0.0
0.0 7.899999999999995 0.0
0.0 7.799999999999995 0.0
0.0 7.699999999999996 0.0
0.0 7.599999999999996 0.0
0.0 7.499999999999996 0.0
0.0 7.399999999999995 0.0
0.0 7.299999999999995 0.0
0.0 7.199999999999996 0.0
0.0 7.099999999999994 0.0
0.0 6.999999999999995 0.0
0.0 6.899999999999995 0.0
0.0 6.799999999999995 0.0
0.0 6.699999999999996 0.0
0.0 6.599999999999994 0.0
0.0 6.499999999999995 0.0
0.0 6.399999999999997 0.0
0.0 6.299999999999997 0.0
0.0 6.199999999999996 0.0
0.0 6.099999999999996 0.0
0.0 5.999999999999996 0.0
0.0 5.899999999999997 0.0
0.0 5.799999999999997 0.0
0.0 5.699999999999996 0.0
0.0 5.599999999999996 0.0
0.0 5.499999999999996 0.0
0.0 5.399999999999995 0.0
0.0 5.299999999999995 0.0
0.0 5.199999999999996 0.0
0.0 5.099999999999996 0.0
0.0 4.999999999999998 0.0
0.0 4.899999999999999 0.0
0.0 4.799999999999997 0.0
0.0 4.699999999999998 0.0
0.0 4.599999999999998 0.0
0.0 4.499999999999996 0.0
0.0 4.399999999999997 0.0
0.0 4.299999999999997 0.0
0.0 4.199999999999998 0.0
0.0 4.099999999999998 0.0
0.0 3.999999999999996 0.0
0.0 3.899999999999999 0.0
0.0 3.799999999999997 0.0
0.0 3.699999999999996 0.0
0.0 3.599999999999998 0.0
0.0 3.5 0.0
0.0 3.399999999999999 0.0
0.0 3.299999999999997 0.0
0.0 3.199999999999999 0.0
0.0 3.099999999999998 0.0
0.0 3.0 0.0
0.0 2.899999999999999 0.0
0.0 2.799999999999997 0.0
0.0 2.699999999999999 0.0
0.0 2.599999999999998 0.0
0.0 2.499999999999996 0.0
0.0 2.399999999999999 0.0
0.0 2.299999999999997 0.0
0.0 2.199999999999999 0.0
0.0 2.100000000000001 0.0
0.0 2.0 0.0
0.0 1.899999999999999 0.0
0.0 1.800000000000001 0.0
0.0 1.699999999999999 0.0
0.0 1.599999999999998 0.0
0.0 1.5 0.0
0.0 1.399999999999999 0.0
0.0 1.299999999999997 0.0
0.0 1.199999999999999 0.0
0.0 1.099999999999998 0.0
0.0 1.0 0.0
0.0 0.8999999999999986 0.0
0.0 0.8000000000000007 0.0
0.0 0.6999999999999993 0.0
0.0 0.6000000000000014 0.0
0.0 0.5 0.0
0.0 0.3999999999999986 0.0
0.0 0.3000000000000007 0.0
0.0 0.1999999999999993 0.0
[...]
POINT_DATA 804
VECTORS displacement double
0.0 0.0 0.0
0.0 0.0 0.0
0.0 0.0017847150686110184 0.0
0.0 0.0017847150686110074 0.0
0.0 0.0 0.0
0.0 0.0 0.0
0.0 0.0017847150686110104 0.0
0.0 0.0017847150686110134 0.0
0.0 -5.972696776778706e-12 0.0
0.0 -1.1813648302910382e-11 0.0
0.0 -1.7901003292927895e-11 0.0
0.0 -2.365946458197215e-11 0.0
0.0 -2.978732154984639e-11 0.0
0.0 -3.556205346937986e-11 0.0
0.0 -4.165518990638006e-11 0.0
0.0 -4.7583727454974067e-11 0.0
0.0 -5.3489519227061053e-11 0.0
0.0 -5.8179712934931603e-11 0.0
0.0 -5.4567605912406064e-11 0.0
0.0 -1.2440675092827462e-11 0.0
0.0 1.8948522353420314e-10 0.0
0.0 9.740565564531252e-10 0.0
0.0 3.7007920907956836e-09 0.0
0.0 1.2388747968340297e-08 0.0
0.0 3.808189843169521e-08 0.0
0.0 1.0907768434649774e-07 0.0
0.0 2.9318157221825563e-07 0.0
0.0 7.425444968584073e-07 0.0
0.0 1.7769955457068544e-06 0.0
0.0 4.0259091726926854e-06 0.0
0.0 8.646619376671564e-06 0.0
0.0 1.7621499332664822e-05 0.0
0.0 3.409729616373958e-05 0.0
0.0 6.266550475906316e-05 0.0
0.0 0.00010940214276297861 0.0
0.0 0.00018142418422937545 0.0
0.0 0.0002857378773333893 0.0
0.0 0.0004273166888868467 0.0
0.0 0.0006066801689487493 0.0
0.0 0.0008176796665984723 0.0
0.0 0.0010465349925350754 0.0
0.0 0.001273128238203383 0.0
0.0 0.0014749358769645129 0.0
0.0 0.0016328313212303639 0.0
0.0 0.001736780048425756 0.0
0.0 0.0017889183829842457 0.0
0.0 0.0018022545286741534 0.0
0.0 0.0017951947910795167 0.0
0.0 0.0017843339036418306 0.0
0.0 0.0017790414381008439 0.0
0.0 0.0017803990342575478 0.0
0.0 0.0017844123036834527 0.0
0.0 0.0017868527943721356 0.0
0.0 0.0017864250247308835 0.0
0.0 0.0017846689964809515 0.0
0.0 0.0017836704305593427 0.0
0.0 0.001784064534058827 0.0
0.0 0.001784952755392263 0.0
0.0 0.001785265871726878 0.0
0.0 0.0017848803869123125 0.0
0.0 0.0017844494321067295 0.0
0.0 0.0017844664091568243 0.0
0.0 0.0017847664970468903 0.0
0.0 0.0017849068343669904 0.0
0.0 0.0017847671353279236 0.0
0.0 0.001784605446095512 0.0
0.0 0.0017846339421039067 0.0
0.0 0.0017847604824633564 0.0
0.0 0.0017847887407093123 0.0
0.0 0.0017847075368042492 0.0
0.0 0.0017846594816003712 0.0
0.0 0.0017847038488779845 0.0
0.0 0.0017847523605116493 0.0
0.0 0.0017847325715422747 0.0
0.0 0.0017846913437356113 0.0
0.0 0.001784696799736998 0.0
0.0 0.001784729135317686 0.0
0.0 0.0017847310417613447 0.0
0.0 0.0017847066290787256 0.0
0.0 0.0017847015809048553 0.0
0.0 0.001784719802918585 0.0
0.0 0.0017847256862552107 0.0
0.0 0.001784712001021738 0.0
0.0 0.0017847064456424535 0.0
0.0 0.0017847169289059665 0.0
0.0 0.0017847216591478175 0.0
0.0 0.0017847134197530416 0.0
0.0 0.001784709687669298 0.0
0.0 0.0017847163516111542 0.0
0.0 0.0017847190884367388 0.0
0.0 0.0017847135791537367 0.0
0.0 0.0017847117747051453 0.0
0.0 0.0017847163996920672 0.0
0.0 0.0017847173788530402 0.0
0.0 0.0017847134939089097 0.0
0.0 0.0017847132351018165 0.0
0.0 0.0017847164618067359 0.0
0.0 0.0017847161293267954 0.0
0.0 0.0017847135357017731 0.0
0.0 0.0017847143338066312 0.0
0.0 0.001784716313707175 0.0
0.0 0.0017847151972948082 0.0
0.0 0.0017847138261036061 0.0
0.0 0.001784715118011917 0.0
0.0 0.0017847159131828012 0.0
0.0 0.0017847146043970213 0.0
0.0 0.0017847143352767026 0.0
0.0 0.0017847155257894067 0.0
0.0 0.0017847153633535813 0.0
0.0 0.00178471441513203 0.0
0.0 0.0017847148952669957 0.0
0.0 0.001784715525273979 0.0
0.0 0.0017847148785109807 0.0
0.0 0.0017847146014061766 0.0
0.0 0.0017847152697931094 0.0
0.0 0.00178471522845715 0.0
0.0 0.001784714676470747 0.0
0.0 0.0017847149617457626 0.0
0.0 0.001784715308902931 0.0
0.0 0.0017847149020656231 0.0
0.0 0.0017847148028912988 0.0
0.0 0.001784715206166133 0.0
0.0 0.0017847150907390461 0.0
0.0 0.0017847148043250076 0.0
0.0 0.001784715058783141 0.0
0.0 0.0017847151736265705 0.0
0.0 0.001784714891180109 0.0
0.0 0.0017847149532459609 0.0
0.0 0.0017847151674766078 0.0
0.0 0.001784714990040763 0.0
0.0 0.0017847149117556117 0.0
0.0 0.0017847151174358207 0.0
0.0 0.001784715061768699 0.0
0.0 0.0017847149192922623 0.0
0.0 0.001784715061361922 0.0
0.0 0.0017847150980789977 0.0
0.0 0.0017847149509896288 0.0
0.0 0.0017847150195466506 0.0
0.0 0.001784715106254937 0.0
0.0 0.0017847149878342484 0.0
0.0 0.0017847149967895237 0.0
0.0 0.0017847150981475561 0.0
0.0 0.0017847150194838057 0.0
0.0 0.0017847149898712724 0.0
0.0 0.001784715083588399 0.0
0.0 0.0017847150427941134 0.0
0.0 0.0017847149926624182 0.0
0.0 0.0017847150693010487 0.0
0.0 0.0017847150578631631 0.0
0.0 0.0017847150001419772 0.0
0.0 0.0017847150584546106 0.0
0.0 0.0017847150662602712 0.0
0.0 0.0017847150091604331 0.0
0.0 0.0017847150517341882 0.0
0.0 0.0017847150698791058 0.0
0.0 0.001784715018215874 0.0
0.0 0.0017847150483571276 0.0
0.0 0.0017847150705960608 0.0
0.0 0.0017847150266998414 0.0
0.0 0.0017847150469800387 0.0
0.0 0.001784715070249391 0.0
0.0 0.0017847150339720896 0.0
0.0 0.0017847150468517248 0.0
0.0 0.0017847150698600627 0.0
0.0 0.001784715039753761 0.0
0.0 0.001784715047500782 0.0
0.0 0.0017847150700304167 0.0
0.0 0.0017847150436919965 0.0
0.0 0.0017847150491792614 0.0
0.0 0.0017847150703590626 0.0
0.0 0.001784715046239004 0.0
0.0 0.0017847150517378502 0.0
0.0 0.0017847150705482733 0.0
0.0 0.0017847150478260332 0.0
0.0 0.001784715055123579 0.0
0.0 0.0017847150700451926 0.0
0.0 0.001784715049341313 0.0
0.0 0.0017847150586416884 0.0
0.0 0.0017847150689998864 0.0
0.0 0.0017847150511112275 0.0
0.0 0.0017847150618670194 0.0
0.0 0.0017847150675578242 0.0
0.0 0.0017847150534074081 0.0
0.0 0.0017847150642461736 0.0
0.0 0.0017847150662817128 0.0
0.0 0.0017847150558950177 0.0
0.0 0.001784715065798024 0.0
0.0 0.0017847150653850143 0.0
0.0 0.0017847150583269063 0.0
0.0 0.0017847150665978259 0.0
0.0 0.0017847150650621962 0.0
0.0 0.0017847150603083298 0.0
0.0 0.0017847150670448392 0.0
0.0 0.0017847150651068206 0.0
0.0 0.0017847150617820013 0.0
0.0 0.0017847150673609936 0.0
0.0 0.0017847150653274154 0.0
0.0 0.0017847150627527898 0.0
0.0 0.0017847150677467438 0.0
0.0 0.0017847150654346096 0.0
0.0 0.001784715063439019 0.0
0.0 0.0017847150681506083 0.0
0.0 0.001784715065330864 0.0
0.0 0.0017847150639861086 0.0
0.0 0.001784715068488289 0.0
0.0 0.0017847150649873697 0.0
0.0 0.0017847150645153378 0.0
0.0 0.0017847150645153487 0.0
0.0 0.0017847150649873786 0.0
0.0 0.001784715068488296 0.0
0.0 0.0017847150639861244 0.0
0.0 0.0017847150653308543 0.0
0.0 0.0017847150681506187 0.0
0.0 0.0017847150634390364 0.0
0.0 0.0017847150654345964 0.0
0.0 0.0017847150677467523 0.0
0.0 0.0017847150627527955 0.0
0.0 0.0017847150653274024 0.0
0.0 0.001784715067361012 0.0
0.0 0.0017847150617820062 0.0
0.0 0.0017847150651068187 0.0
0.0 0.001784715067044846 0.0
0.0 0.0017847150603083311 0.0
0.0 0.0017847150650621975 0.0
0.0 0.0017847150665978358 0.0
0.0 0.0017847150583269068 0.0
0.0 0.0017847150653850176 0.0
0.0 0.001784715065798032 0.0
0.0 0.0017847150558950246 0.0
0.0 0.0017847150662817011 0.0
0.0 0.0017847150642461853 0.0
0.0 0.0017847150534074118 0.0
0.0 0.0017847150675578312 0.0
0.0 0.0017847150618670387 0.0
0.0 0.0017847150511112288 0.0
0.0 0.0017847150689998912 0.0
0.0 0.001784715058641688 0.0
0.0 0.0017847150493413139 0.0
0.0 0.0017847150700451907 0.0
0.0 0.0017847150551235876 0.0
0.0 0.0017847150478260407 0.0
0.0 0.0017847150705482696 0.0
0.0 0.0017847150517378606 0.0
0.0 0.0017847150462390027 0.0
0.0 0.0017847150703590687 0.0
0.0 0.0017847150491792588 0.0
0.0 0.0017847150436919917 0.0
0.0 0.0017847150700304186 0.0
0.0 0.0017847150475007805 0.0
0.0 0.0017847150397537694 0.0
0.0 0.001784715069860071 0.0
0.0 0.0017847150468517162 0.0
0.0 0.0017847150339720785 0.0
0.0 0.001784715070249394 0.0
0.0 0.0017847150469800408 0.0
0.0 0.0017847150266998388 0.0
0.0 0.0017847150705960848 0.0
0.0 0.0017847150483571142 0.0
0.0 0.0017847150182158942 0.0
0.0 0.001784715069879102 0.0
0.0 0.001784715051734186 0.0
0.0 0.0017847150091604325 0.0
0.0 0.0017847150662602736 0.0
0.0 0.001784715058454607 0.0
0.0 0.0017847150001419568 0.0
0.0 0.0017847150578631625 0.0
0.0 0.0017847150693010303 0.0
0.0 0.0017847149926624247 0.0
0.0 0.001784715042794129 0.0
0.0 0.0017847150835884143 0.0
0.0 0.0017847149898712698 0.0
0.0 0.0017847150194837938 0.0
0.0 0.0017847150981475444 0.0
0.0 0.0017847149967895374 0.0
0.0 0.0017847149878342616 0.0
0.0 0.0017847151062549307 0.0
0.0 0.0017847150195466372 0.0
0.0 0.0017847149509896253 0.0
0.0 0.0017847150980790116 0.0
0.0 0.0017847150613619243 0.0
0.0 0.0017847149192922619 0.0
0.0 0.001784715061768704 0.0
0.0 0.0017847151174358138 0.0
0.0 0.0017847149117556163 0.0
0.0 0.0017847149900407713 0.0
0.0 0.0017847151674766078 0.0
0.0 0.0017847149532459554 0.0
0.0 0.0017847148911801192 0.0
0.0 0.0017847151736265696 0.0
0.0 0.001784715058783126 0.0
0.0 0.0017847148043250184 0.0
0.0 0.0017847150907390336 0.0
0.0 0.0017847152061661233 0.0
0.0 0.0017847148028912962 0.0
0.0 0.001784714902065623 0.0
0.0 0.0017847153089029302 0.0
0.0 0.0017847149617457605 0.0
0.0 0.0017847146764707522 0.0
0.0 0.0017847152284571513 0.0
0.0 0.0017847152697931157 0.0
0.0 0.0017847146014061794 0.0
0.0 0.0017847148785109937 0.0
0.0 0.0017847155252739813 0.0
0.0 0.0017847148952669996 0.0
0.0 0.0017847144151320214 0.0
0.0 0.001784715363353573 0.0
0.0 0.0017847155257893987 0.0
0.0 0.0017847143352767085 0.0
0.0 0.00178471460439701 0.0
0.0 0.0017847159131828183 0.0
0.0 0.0017847151180119323 0.0
0.0 0.001784713826103607 0.0
0.0 0.00178471519729481 0.0
0.0 0.0017847163137071735 0.0
0.0 0.0017847143338066247 0.0
0.0 0.0017847135357017922 0.0
0.0 0.0017847161293267797 0.0
0.0 0.0017847164618067359 0.0
0.0 0.001784713235101828 0.0
0.0 0.001784713493908902 0.0
0.0 0.0017847173788530495 0.0
0.0 0.0017847163996920709 0.0
0.0 0.0017847117747051414 0.0
0.0 0.001784713579153742 0.0
0.0 0.001784719088436749 0.0
0.0 0.0017847163516111788 0.0
0.0 0.0017847096876693045 0.0
0.0 0.001784713419753032 0.0
0.0 0.0017847216591478196 0.0
0.0 0.001784716928905978 0.0
0.0 0.0017847064456424618 0.0
0.0 0.0017847120010217171 0.0
0.0 0.001784725686255212 0.0
0.0 0.0017847198029186013 0.0
0.0 0.0017847015809048458 0.0
0.0 0.001784706629078713 0.0
0.0 0.0017847310417613432 0.0
0.0 0.001784729135317687 0.0
0.0 0.001784696799736996 0.0
0.0 0.0017846913437355983 0.0
0.0 0.0017847325715422788 0.0
0.0 0.0017847523605116669 0.0
0.0 0.001784703848877987 0.0
0.0 0.0017846594816003684 0.0
0.0 0.0017847075368042286 0.0
0.0 0.0017847887407093158 0.0
0.0 0.0017847604824633597 0.0
0.0 0.0017846339421039171 0.0
0.0 0.0017846054460954814 0.0
0.0 0.0017847671353279056 0.0
0.0 0.0017849068343669932 0.0
0.0 0.0017847664970469127 0.0
0.0 0.0017844664091568516 0.0
0.0 0.0017844494321067152 0.0
0.0 0.0017848803869122728 0.0
0.0 0.0017852658717268906 0.0
0.0 0.001784952755392324 0.0
0.0 0.0017840645340589025 0.0
0.0 0.001783670430559319 0.0
0.0 0.0017846689964808038 0.0
0.0 0.0017864250247307618 0.0
0.0 0.0017868527943722052 0.0
0.0 0.0017844123036837368 0.0
0.0 0.0017803990342577995 0.0
0.0 0.0017790414381007188 0.0
0.0 0.0017843339036412423 0.0
0.0 0.001795194791078803 0.0
0.0 0.0018022545286741595 0.0
0.0 0.0017889183829859871 0.0
0.0 0.0017367800484299665 0.0
0.0 0.0016328313212372087 0.0
0.0 0.001474935876973459 0.0
0.0 0.0012731282382134124 0.0
0.0 0.0010465349925450336 0.0
0.0 0.0008176796666074119 0.0
0.0 0.0006066801689560593 0.0
0.0 0.0004273166888923505 0.0
0.0 0.00028573787733721253 0.0
0.0 0.0001814241842318377 0.0
0.0 0.00010940214276445264 0.0
0.0 6.266550475989273e-05 0.0
0.0 3.409729616417982e-05 0.0
0.0 1.762149933289665e-05 0.0
0.0 8.646619376787555e-06 0.0
0.0 4.025909172748427e-06 0.0
0.0 1.77699554573209e-06 0.0
0.0 7.425444968691657e-07 0.0
0.0 2.9318157222257476e-07 0.0
0.0 1.0907768434812345e-07 0.0
0.0 3.808189843226475e-08 0.0
0.0 1.2388747968531202e-08 0.0
0.0 3.700792090857621e-09 0.0
0.0 9.740565564705746e-10 0.0
0.0 1.8948522353670805e-10 0.0
0.0 -1.2440675090132015e-11 0.0
0.0 -5.456760590468532e-11 0.0
0.0 -5.817971293040404e-11 0.0
0.0 -5.348951922954567e-11 0.0
0.0 -4.758372745766108e-11 0.0
0.0 -4.165518990744184e-11 0.0
0.0 -3.5562053472459193e-11 0.0
0.0 -2.9787321552221666e-11 0.0
0.0 -2.3659464579632035e-11 0.0
0.0 -1.7901003289975797e-11 0.0
0.0 -1.1813648303815892e-11 0.0
0.0 -5.972696779012616e-12 0.0
0.0 -5.972696771524258e-12 0.0
0.0 -1.1813648297881201e-11 0.0
0.0 -1.7901003288706876e-11 0.0
0.0 -2.3659464579159996e-11 0.0
0.0 -2.978732155068406e-11 0.0
0.0 -3.5562053469649655e-11 0.0
0.0 -4.1655189903257244e-11 0.0
0.0 -4.758372745227533e-11 0.0
0.0 -5.348951922803408e-11 0.0
0.0 -5.817971294098679e-11 0.0
0.0 -5.456760592082753e-11 0.0
0.0 -1.244067509707097e-11 0.0
0.0 1.894852235363387e-10 0.0
0.0 9.740565564579686e-10 0.0
0.0 3.700792090799179e-09 0.0
0.0 1.2388747968341904e-08 0.0
0.0 3.8081898431695705e-08 0.0
0.0 1.0907768434649839e-07 0.0
0.0 2.9318157221825616e-07 0.0
0.0 7.425444968584123e-07 0.0
0.0 1.776995545706852e-06 0.0
0.0 4.025909172692679e-06 0.0
0.0 8.646619376671572e-06 0.0
0.0 1.7621499332664748e-05 0.0
0.0 3.409729616373967e-05 0.0
0.0 6.266550475906313e-05 0.0
0.0 0.00010940214276297843 0.0
0.0 0.0001814241842293761 0.0
0.0 0.00028573787733338963 0.0
0.0 0.00042731668888684813 0.0
0.0 0.000606680168948749 0.0
0.0 0.0008176796665984738 0.0
0.0 0.0010465349925350713 0.0
0.0 0.0012731282382033862 0.0
0.0 0.0014749358769645133 0.0
0.0 0.0016328313212303621 0.0
0.0 0.0017367800484257483 0.0
0.0 0.0017889183829842537 0.0
0.0 0.0018022545286741512 0.0
0.0 0.0017951947910795128 0.0
0.0 0.0017843339036418345 0.0
0.0 0.0017790414381008317 0.0
0.0 0.0017803990342575495 0.0
0.0 0.0017844123036834555 0.0
0.0 0.0017868527943721297 0.0
0.0 0.0017864250247308813 0.0
0.0 0.0017846689964809456 0.0
0.0 0.0017836704305593438 0.0
0.0 0.0017840645340588214 0.0
0.0 0.0017849527553922644 0.0
0.0 0.0017852658717268978 0.0
0.0 0.0017848803869123236 0.0
0.0 0.0017844494321067354 0.0
0.0 0.001784466409156816 0.0
0.0 0.0017847664970468767 0.0
0.0 0.0017849068343669858 0.0
0.0 0.001784767135327924 0.0
0.0 0.0017846054460954983 0.0
0.0 0.0017846339421039043 0.0
0.0 0.0017847604824633566 0.0
0.0 0.001784788740709314 0.0
0.0 0.001784707536804241 0.0
0.0 0.0017846594816003703 0.0
0.0 0.0017847038488779771 0.0
0.0 0.0017847523605116627 0.0
0.0 0.0017847325715422881 0.0
0.0 0.0017846913437356085 0.0
0.0 0.0017846967997370005 0.0
0.0 0.0017847291353176866 0.0
0.0 0.0017847310417613367 0.0
0.0 0.001784706629078724 0.0
0.0 0.0017847015809048608 0.0
0.0 0.001784719802918597 0.0
0.0 0.0017847256862552061 0.0
0.0 0.0017847120010217263 0.0
0.0 0.0017847064456424561 0.0
0.0 0.001784716928905982 0.0
0.0 0.0017847216591478276 0.0
0.0 0.001784713419753038 0.0
0.0 0.0017847096876692891 0.0
0.0 0.0017847163516111707 0.0
0.0 0.0017847190884367511 0.0
0.0 0.0017847135791537398 0.0
0.0 0.001784711774705129 0.0
0.0 0.0017847163996920672 0.0
0.0 0.0017847173788530521 0.0
0.0 0.0017847134939089056 0.0
0.0 0.0017847132351018283 0.0
0.0 0.0017847164618067398 0.0
0.0 0.0017847161293267778 0.0
0.0 0.0017847135357017883 0.0
0.0 0.0017847143338066182 0.0
0.0 0.0017847163137071711 0.0
0.0 0.0017847151972948199 0.0
0.0 0.0017847138261036146 0.0
0.0 0.0017847151180119384 0.0
0.0 0.001784715913182819 0.0
0.0 0.0017847146043970241 0.0
0.0 0.0017847143352767109 0.0
0.0 0.0017847155257894028 0.0
0.0 0.0017847153633535815 0.0
0.0 0.0017847144151320242 0.0
0.0 0.0017847148952670033 0.0
0.0 0.0017847155252739878 0.0
0.0 0.001784714878510995 0.0
0.0 0.0017847146014061802 0.0
0.0 0.001784715269793119 0.0
0.0 0.0017847152284571639 0.0
0.0 0.0017847146764707522 0.0
0.0 0.0017847149617457655 0.0
0.0 0.0017847153089029372 0.0
0.0 0.001784714902065621 0.0
0.0 0.0017847148028912992 0.0
0.0 0.0017847152061661164 0.0
0.0 0.0017847150907390299 0.0
0.0 0.0017847148043250028 0.0
0.0 0.001784715058783134 0.0
0.0 0.0017847151736265709 0.0
0.0 0.0017847148911801227 0.0
0.0 0.0017847149532459513 0.0
0.0 0.0017847151674766132 0.0
0.0 0.0017847149900407661 0.0
0.0 0.0017847149117556115 0.0
0.0 0.001784715117435812 0.0
0.0 0.0017847150617686977 0.0
0.0 0.001784714919292255 0.0
0.0 0.001784715061361937 0.0
0.0 0.0017847150980790183 0.0
0.0 0.0017847149509896264 0.0
0.0 0.0017847150195466443 0.0
0.0 0.0017847151062549468 0.0
0.0 0.0017847149878342614 0.0
0.0 0.0017847149967895378 0.0
0.0 0.0017847150981475518 0.0
0.0 0.0017847150194838066 0.0
0.0 0.0017847149898712652 0.0
0.0 0.001784715083588415 0.0
0.0 0.0017847150427941218 0.0
0.0 0.0017847149926624268 0.0
0.0 0.0017847150693010463 0.0
0.0 0.0017847150578631646 0.0
0.0 0.0017847150001419577 0.0
0.0 0.00178471505845461 0.0
0.0 0.0017847150662602708 0.0
0.0 0.001784715009160445 0.0
0.0 0.0017847150517341836 0.0
0.0 0.001784715069879095 0.0
0.0 0.0017847150182158898 0.0
0.0 0.0017847150483571161 0.0
0.0 0.0017847150705960757 0.0
0.0 0.0017847150266998412 0.0
0.0 0.0017847150469800367 0.0
0.0 0.0017847150702493897 0.0
0.0 0.0017847150339720798 0.0
0.0 0.0017847150468517192 0.0
0.0 0.0017847150698600668 0.0
0.0 0.001784715039753769 0.0
0.0 0.0017847150475007831 0.0
0.0 0.0017847150700304234 0.0
0.0 0.0017847150436919954 0.0
0.0 0.0017847150491792558 0.0
0.0 0.0017847150703590568 0.0
0.0 0.001784715046239003 0.0
0.0 0.0017847150517378526 0.0
0.0 0.0017847150705482652 0.0
0.0 0.0017847150478260264 0.0
0.0 0.0017847150551235902 0.0
0.0 0.0017847150700451959 0.0
0.0 0.0017847150493413065 0.0
0.0 0.0017847150586416804 0.0
0.0 0.0017847150689998823 0.0
0.0 0.0017847150511112067 0.0
0.0 0.0017847150618670365 0.0
0.0 0.001784715067557832 0.0
0.0 0.0017847150534074118 0.0
0.0 0.0017847150642461803 0.0
0.0 0.0017847150662816987 0.0
0.0 0.0017847150558950172 0.0
0.0 0.0017847150657980305 0.0
0.0 0.0017847150653850271 0.0
0.0 0.0017847150583268996 0.0
0.0 0.0017847150665978293 0.0
0.0 0.0017847150650621992 0.0
0.0 0.001784715060308333 0.0
0.0 0.0017847150670448494 0.0
0.0 0.0017847150651068074 0.0
0.0 0.0017847150617820021 0.0
0.0 0.0017847150673610064 0.0
0.0 0.0017847150653274026 0.0
0.0 0.0017847150627527814 0.0
0.0 0.0017847150677467512 0.0
0.0 0.001784715065434588 0.0
0.0 0.0017847150634390343 0.0
0.0 0.0017847150681506094 0.0
0.0 0.0017847150653308582 0.0
0.0 0.001784715063986123 0.0
0.0 0.0017847150684883024 0.0
0.0 0.0017847150649873804 0.0
0.0 0.0017847150645153539 0.0
0.0 0.001784715064515342 0.0
0.0 0.0017847150649873736 0.0
0.0 0.0017847150684882932 0.0
0.0 0.0017847150639861192 0.0
0.0 0.0017847150653308628 0.0
0.0 0.0017847150681506133 0.0
0.0 0.0017847150634390247 0.0
0.0 0.0017847150654346075 0.0
0.0 0.0017847150677467504 0.0
0.0 0.0017847150627527885 0.0
0.0 0.001784715065327407 0.0
0.0 0.0017847150673609945 0.0
0.0 0.001784715061782009 0.0
0.0 0.0017847150651068239 0.0
0.0 0.0017847150670448398 0.0
0.0 0.0017847150603083255 0.0
0.0 0.0017847150650622068 0.0
0.0 0.0017847150665978324 0.0
0.0 0.0017847150583269007 0.0
0.0 0.0017847150653850141 0.0
0.0 0.0017847150657980262 0.0
0.0 0.0017847150558950246 0.0
0.0 0.0017847150662817042 0.0
0.0 0.0017847150642461768 0.0
0.0 0.0017847150534074042 0.0
0.0 0.0017847150675578342 0.0
0.0 0.0017847150618670274 0.0
0.0 0.001784715051111234 0.0
0.0 0.0017847150689998812 0.0
0.0 0.0017847150586416862 0.0
0.0 0.0017847150493413165 0.0
0.0 0.0017847150700452026 0.0
0.0 0.0017847150551235933 0.0
0.0 0.0017847150478260453 0.0
0.0 0.001784715070548283 0.0
0.0 0.0017847150517378558 0.0
0.0 0.0017847150462389988 0.0
0.0 0.0017847150703590592 0.0
0.0 0.0017847150491792597 0.0
0.0 0.0017847150436919891 0.0
0.0 0.0017847150700304253 0.0
0.0 0.0017847150475007946 0.0
0.0 0.0017847150397537616 0.0
0.0 0.0017847150698600551 0.0
0.0 0.0017847150468517181 0.0
0.0 0.0017847150339720984 0.0
0.0 0.00178471507024938 0.0
0.0 0.0017847150469800423 0.0
0.0 0.0017847150266998503 0.0
0.0 0.0017847150705960647 0.0
0.0 0.0017847150483571387 0.0
0.0 0.0017847150182158597 0.0
0.0 0.0017847150698790944 0.0
0.0 0.0017847150517341906 0.0
0.0 0.0017847150091604494 0.0
0.0 0.0017847150662602736 0.0
0.0 0.0017847150584546121 0.0
0.0 0.0017847150001419766 0.0
0.0 0.0017847150578631646 0.0
0.0 0.0017847150693010572 0.0
0.0 0.0017847149926624192 0.0
0.0 0.0017847150427941158 0.0
0.0 0.0017847150835883984 0.0