# vtk DataFile Version 2.0
data_783
ASCII
DATASET UNSTRUCTURED_GRID
POINTS 804 float
0.0 0.0 0.0
0.1 0.0 0.0
0.1 20.0 0.0
0.0 20.0 0.0
0.0 0.0 -0.1
0.1 0.0 -0.1
0.1 20.0 -0.1
0.0 20.0 -0.1
0.1 0.09999999999992462 0.0
0.1 0.1999999999998517 0.0
0.1 0.2999999999997818 0.0
0.1 0.399999999999712 0.0
0.1 0.4999999999996377 0.0
0.1 0.5999999999995541 0.0
0.1 0.6999999999994495 0.0
0.1 0.7999999999993355 0.0
0.1 0.8999999999992101 0.0
0.1 0.999999999999102 0.0
0.1 1.099999999999006 0.0
0.1 1.199999999998936 0.0
0.1 1.299999999998867 0.0
0.1 1.399999999998797 0.0
0.1 1.499999999998727 0.0
0.1 1.599999999998657 0.0
0.1 1.699999999998587 0.0
0.1 1.799999999998517 0.0
0.1 1.899999999998447 0.0
0.1 1.999999999998378 0.0
0.1 2.099999999998308 0.0
0.1 2.199999999998238 0.0
0.1 2.299999999998168 0.0
0.1 2.399999999998067 0.0
0.1 2.499999999997942 0.0
0.1 2.599999999997706 0.0
0.1 2.699999999997444 0.0
0.1 2.799999999997153 0.0
0.1 2.899999999996861 0.0
0.1 2.999999999996569 0.0
0.1 3.099999999996277 0.0
0.1 3.199999999995984 0.0
0.1 3.299999999995693 0.0
0.1 3.399999999995401 0.0
0.1 3.499999999995108 0.0
0.1 3.599999999994816 0.0
0.1 3.699999999994525 0.0
0.1 3.799999999994232 0.0
0.1 3.89999999999394 0.0
0.1 3.999999999993648 0.0
0.1 4.099999999993356 0.0
0.1 4.199999999993064 0.0
0.1 4.299999999992772 0.0
0.1 4.399999999992479 0.0
0.1 4.499999999992188 0.0
0.1 4.599999999991895 0.0
0.1 4.699999999991603 0.0
0.1 4.799999999991311 0.0
0.1 4.899999999991019 0.0
0.1 4.999999999990727 0.0
0.1 5.099999999990436 0.0
0.1 5.199999999990144 0.0
0.1 5.299999999989851 0.0
0.1 5.399999999989559 0.0
0.1 5.499999999989267 0.0
0.1 5.599999999988975 0.0
0.1 5.699999999988683 0.0
0.1 5.799999999988391 0.0
0.1 5.899999999988099 0.0
0.1 5.999999999987806 0.0
0.1 6.099999999987515 0.0
0.1 6.199999999987222 0.0
0.1 6.299999999986929 0.0
0.1 6.399999999986638 0.0
0.1 6.499999999986345 0.0
0.1 6.599999999986054 0.0
0.1 6.699999999985762 0.0
0.1 6.79999999998547 0.0
0.1 6.899999999985177 0.0
0.1 6.999999999984885 0.0
0.1 7.099999999984593 0.0
0.1 7.199999999984302 0.0
0.1 7.299999999984009 0.0
0.1 7.399999999983717 0.0
0.1 7.499999999983426 0.0
0.1 7.599999999983132 0.0
0.1 7.699999999982841 0.0
0.1 7.799999999982549 0.0
0.1 7.899999999982256 0.0
0.1 7.999999999982034 0.0
0.1 8.099999999981964 0.0
0.1 8.199999999982062 0.0
0.1 8.299999999982214 0.0
0.1 8.399999999982366 0.0
0.1 8.499999999982517 0.0
0.1 8.59999999998267 0.0
0.1 8.699999999982822 0.0
0.1 8.799999999982973 0.0
0.1 8.899999999983125 0.0
0.1 8.999999999983277 0.0
0.1 9.09999999998343 0.0
0.1 9.19999999998358 0.0
0.1 9.299999999983733 0.0
0.1 9.399999999983885 0.0
0.1 9.499999999984038 0.0
0.1 9.599999999984188 0.0
0.1 9.69999999998434 0.0
0.1 9.799999999984493 0.0
0.1 9.899999999984646 0.0
0.1 9.999999999984798 0.0
0.1 10.09999999998495 0.0
0.1 10.1999999999851 0.0
0.1 10.29999999998525 0.0
0.1 10.39999999998541 0.0
0.1 10.49999999998556 0.0
0.1 10.59999999998571 0.0
0.1 10.69999999998586 0.0
0.1 10.79999999998601 0.0
0.1 10.89999999998616 0.0
0.1 10.99999999998632 0.0
0.1 11.09999999998647 0.0
0.1 11.19999999998662 0.0
0.1 11.29999999998677 0.0
0.1 11.39999999998693 0.0
0.1 11.49999999998708 0.0
0.1 11.59999999998723 0.0
0.1 11.69999999998738 0.0
0.1 11.79999999998754 0.0
0.1 11.89999999998769 0.0
0.1 11.99999999998784 0.0
0.1 12.09999999998799 0.0
0.1 12.19999999998814 0.0
0.1 12.2999999999883 0.0
0.1 12.39999999998845 0.0
0.1 12.4999999999886 0.0
0.1 12.59999999998875 0.0
0.1 12.6999999999889 0.0
0.1 12.79999999998905 0.0
0.1 12.89999999998921 0.0
0.1 12.99999999998936 0.0
0.1 13.09999999998951 0.0
0.1 13.19999999998966 0.0
0.1 13.29999999998982 0.0
0.1 13.39999999998997 0.0
0.1 13.49999999999012 0.0
0.1 13.59999999999027 0.0
0.1 13.69999999999042 0.0
0.1 13.79999999999057 0.0
0.1 13.89999999999073 0.0
0.1 13.99999999999088 0.0
0.1 14.09999999999103 0.0
0.1 14.19999999999118 0.0
0.1 14.29999999999134 0.0
0.1 14.39999999999149 0.0
0.1 14.49999999999164 0.0
0.1 14.59999999999179 0.0
0.1 14.69999999999194 0.0
0.1 14.7999999999921 0.0
0.1 14.89999999999225 0.0
0.1 14.9999999999924 0.0
0.1 15.09999999999255 0.0
0.1 15.1999999999927 0.0
0.1 15.29999999999285 0.0
0.1 15.39999999999301 0.0
0.1 15.49999999999316 0.0
0.1 15.59999999999331 0.0
0.1 15.69999999999346 0.0
0.1 15.79999999999362 0.0
0.1 15.89999999999377 0.0
0.1 15.99999999999392 0.0
0.1 16.09999999999407 0.0
0.1 16.19999999999422 0.0
0.1 16.29999999999437 0.0
0.1 16.39999999999453 0.0
0.1 16.49999999999468 0.0
0.1 16.59999999999483 0.0
0.1 16.69999999999498 0.0
0.1 16.79999999999514 0.0
0.1 16.89999999999528 0.0
0.1 16.99999999999544 0.0
0.1 17.09999999999559 0.0
0.1 17.19999999999574 0.0
0.1 17.29999999999589 0.0
0.1 17.39999999999605 0.0
0.1 17.4999999999962 0.0
0.1 17.59999999999635 0.0
0.1 17.6999999999965 0.0
0.1 17.79999999999665 0.0
0.1 17.89999999999681 0.0
0.1 17.99999999999696 0.0
0.1 18.09999999999711 0.0
0.1 18.19999999999726 0.0
0.1 18.29999999999742 0.0
0.1 18.39999999999757 0.0
0.1 18.49999999999772 0.0
0.1 18.59999999999787 0.0
0.1 18.69999999999802 0.0
0.1 18.79999999999818 0.0
0.1 18.89999999999833 0.0
0.1 18.99999999999848 0.0
0.1 19.09999999999863 0.0
0.1 19.19999999999878 0.0
0.1 19.29999999999894 0.0
0.1 19.39999999999909 0.0
0.1 19.49999999999924 0.0
0.1 19.59999999999939 0.0
0.1 19.69999999999955 0.0
0.1 19.7999999999997 0.0
0.1 19.89999999999985 0.0
0.0 19.9 0.0
0.0 19.8 0.0
0.0 19.7 0.0
0.0 19.6 0.0
0.0 19.5 0.0
0.0 19.4 0.0
0.0 19.3 0.0
0.0 19.2 0.0
0.0 19.1 0.0
0.0 19.0 0.0
0.0 18.9 0.0
0.0 18.8 0.0
0.0 18.7 0.0
0.0 18.6 0.0
0.0 18.5 0.0
0.0 18.4 0.0
0.0 18.3 0.0
0.0 18.2 0.0
0.0 18.1 0.0
0.0 18.0 0.0
0.0 17.9 0.0
0.0 17.8 0.0
0.0 17.7 0.0
0.0 17.6 0.0
0.0 17.5 0.0
0.0 17.4 0.0
0.0 17.3 0.0
0.0 17.2 0.0
0.0 17.09999999999999 0.0
0.0 17.0 0.0
0.0 16.9 0.0
0.0 16.8 0.0
0.0 16.7 0.0
0.0 16.59999999999999 0.0
0.0 16.49999999999999 0.0
0.0 16.4 0.0
0.0 16.29999999999999 0.0
0.0 16.2 0.0
0.0 16.09999999999999 0.0
0.0 15.99999999999999 0.0
0.0 15.89999999999999 0.0
0.0 15.79999999999999 0.0
0.0 15.69999999999999 0.0
0.0 15.59999999999999 0.0
0.0 15.49999999999999 0.0
0.0 15.39999999999999 0.0
0.0 15.29999999999999 0.0
0.0 15.19999999999999 0.0
0.0 15.09999999999999 0.0
0.0 14.99999999999999 0.0
0.0 14.89999999999999 0.0
0.0 14.79999999999999 0.0
0.0 14.69999999999999 0.0
0.0 14.59999999999999 0.0
0.0 14.49999999999999 0.0
0.0 14.39999999999999 0.0
0.0 14.29999999999999 0.0
0.0 14.19999999999999 0.0
0.0 14.09999999999999 0.0
0.0 13.99999999999999 0.0
0.0 13.89999999999999 0.0
0.0 13.79999999999999 0.0
0.0 13.69999999999999 0.0
0.0 13.59999999999999 0.0
0.0 13.49999999999999 0.0
0.0 13.39999999999999 0.0
0.0 13.29999999999999 0.0
0.0 13.19999999999999 0.0
0.0 13.09999999999999 0.0
0.0 12.99999999999999 0.0
0.0 12.89999999999999 0.0
0.0 12.79999999999999 0.0
0.0 12.69999999999999 0.0
0.0 12.59999999999999 0.0
0.0 12.49999999999999 0.0
0.0 12.39999999999999 0.0
0.0 12.29999999999999 0.0
0.0 12.19999999999999 0.0
0.0 12.09999999999999 0.0
0.0 11.99999999999999 0.0
0.0 11.89999999999999 0.0
0.0 11.79999999999999 0.0
0.0 11.69999999999999 0.0
0.0 11.59999999999999 0.0
0.0 11.49999999999999 0.0
0.0 11.39999999999999 0.0
0.0 11.29999999999999 0.0
0.0 11.19999999999999 0.0
0.0 11.09999999999999 0.0
0.0 10.99999999999999 0.0
0.0 10.89999999999999 0.0
0.0 10.79999999999999 0.0
0.0 10.69999999999999 0.0
0.0 10.59999999999999 0.0
0.0 10.49999999999999 0.0
0.0 10.39999999999999 0.0
0.0 10.29999999999999 0.0
0.0 10.19999999999999 0.0
0.0 10.09999999999999 0.0
0.0 9.999999999999993 0.0
0.0 9.899999999999993 0.0
0.0 9.799999999999994 0.0
0.0 9.699999999999992 0.0
0.0 9.599999999999993 0.0
0.0 9.499999999999993 0.0
0.0 9.399999999999993 0.0
0.0 9.299999999999995 0.0
0.0 9.199999999999996 0.0
0.0 9.099999999999994 0.0
0.0 8.999999999999995 0.0
0.0 8.899999999999995 0.0
0.0 8.799999999999994 0.0
0.0 8.699999999999994 0.0
0.0 8.599999999999994 0.0
0.0 8.499999999999995 0.0
0.0 8.399999999999995 0.0
0.0 8.299999999999994 0.0
0.0 8.199999999999994 0.0
0.0 8.099999999999994 0.0
0.0 7.999999999999993 0.0
0.0 7.899999999999995 0.0
0.0 7.799999999999995 0.0
0.0 7.699999999999996 0.0
0.0 7.599999999999996 0.0
0.0 7.499999999999996 0.0
0.0 7.399999999999995 0.0
0.0 7.299999999999995 0.0
0.0 7.199999999999996 0.0
0.0 7.099999999999994 0.0
0.0 6.999999999999995 0.0
0.0 6.899999999999995 0.0
0.0 6.799999999999995 0.0
0.0 6.699999999999996 0.0
0.0 6.599999999999994 0.0
0.0 6.499999999999995 0.0
0.0 6.399999999999997 0.0
0.0 6.299999999999997 0.0
0.0 6.199999999999996 0.0
0.0 6.099999999999996 0.0
0.0 5.999999999999996 0.0
0.0 5.899999999999997 0.0
0.0 5.799999999999997 0.0
0.0 5.699999999999996 0.0
0.0 5.599999999999996 0.0
0.0 5.499999999999996 0.0
0.0 5.399999999999995 0.0
0.0 5.299999999999995 0.0
0.0 5.199999999999996 0.0
0.0 5.099999999999996 0.0
0.0 4.999999999999998 0.0
0.0 4.899999999999999 0.0
0.0 4.799999999999997 0.0
0.0 4.699999999999998 0.0
0.0 4.599999999999998 0.0
0.0 4.499999999999996 0.0
0.0 4.399999999999997 0.0
0.0 4.299999999999997 0.0
0.0 4.199999999999998 0.0
0.0 4.099999999999998 0.0
0.0 3.999999999999996 0.0
0.0 3.899999999999999 0.0
0.0 3.799999999999997 0.0
0.0 3.699999999999996 0.0
0.0 3.599999999999998 0.0
0.0 3.5 0.0
0.0 3.399999999999999 0.0
0.0 3.299999999999997 0.0
0.0 3.199999999999999 0.0
0.0 3.099999999999998 0.0
0.0 3.0 0.0
0.0 2.899999999999999 0.0
0.0 2.799999999999997 0.0
0.0 2.699999999999999 0.0
0.0 2.599999999999998 0.0
0.0 2.499999999999996 0.0
0.0 2.399999999999999 0.0
0.0 2.299999999999997 0.0
0.0 2.199999999999999 0.0
0.0 2.100000000000001 0.0
0.0 2.0 0.0
0.0 1.899999999999999 0.0
0.0 1.800000000000001 0.0
0.0 1.699999999999999 0.0
0.0 1.599999999999998 0.0
0.0 1.5 0.0
0.0 1.399999999999999 0.0
0.0 1.299999999999997 0.0
0.0 1.199999999999999 0.0
0.0 1.099999999999998 0.0
0.0 1.0 0.0
0.0 0.8999999999999986 0.0
0.0 0.8000000000000007 0.0
0.0 0.6999999999999993 0.0
0.0 0.6000000000000014 0.0
0.0 0.5 0.0
0.0 0.3999999999999986 0.0
0.0 0.3000000000000007 0.0
0.0 0.1999999999999993 0.0
[...]
POINT_DATA 804
VECTORS displacement double
0.0 0.0 0.0
0.0 0.0 0.0
0.0 0.0017846120990574793 0.0
0.0 0.0017846120990575066 0.0
0.0 0.0 0.0
0.0 0.0 0.0
0.0 0.0017846120990574965 0.0
0.0 0.0017846120990574962 0.0
0.0 5.335976353765741e-09 0.0
0.0 1.8191388465072335e-08 0.0
0.0 5.3956304752962634e-08 0.0
0.0 1.494175885427027e-07 0.0
0.0 3.897230444259767e-07 0.0
0.0 9.605295541334371e-07 0.0
0.0 2.2417849879576776e-06 0.0
0.0 4.962230767383546e-06 0.0
0.0 1.042894591188625e-05 0.0
0.0 2.082640341948301e-05 0.0
0.0 3.953721335416973e-05 0.0
0.0 7.137114245096296e-05 0.0
0.0 0.00012251492861807293 0.0
0.0 0.00019997077734606002 0.0
0.0 0.0003102944766346843 0.0
0.0 0.0004576306092517142 0.0
0.0 0.0006413811739112119 0.0
0.0 0.0008542469428758897 0.0
0.0 0.0010816459352012684 0.0
0.0 0.0013033845579646273 0.0
0.0 0.0014977752229385069 0.0
0.0 0.0016472801003176198 0.0
0.0 0.0017436953881017684 0.0
0.0 0.00179055852302551 0.0
0.0 0.0018013415962202203 0.0
0.0 0.0017939123146949862 0.0
0.0 0.001783742728854467 0.0
0.0 0.0017791449315826158 0.0
0.0 0.0017806923217856304 0.0
0.0 0.0017844838503096466 0.0
0.0 0.0017866588043638962 0.0
0.0 0.001786169093621115 0.0
0.0 0.001784523836597619 0.0
0.0 0.0017836311756623368 0.0
0.0 0.001784021364351048 0.0
0.0 0.0017848417761805997 0.0
0.0 0.0017851213959057877 0.0
0.0 0.0017847633887685115 0.0
0.0 0.0017843678845440344 0.0
0.0 0.0017843818565114343 0.0
0.0 0.0017846557201314298 0.0
0.0 0.0017847876875564733 0.0
0.0 0.0017846640816198704 0.0
0.0 0.001784514487473181 0.0
0.0 0.0017845348689358009 0.0
0.0 0.0017846494097605312 0.0
0.0 0.001784680330628184 0.0
0.0 0.001784609413475226 0.0
0.0 0.001784562045484152 0.0
0.0 0.0017845982868419218 0.0
0.0 0.0017846442940725425 0.0
0.0 0.0017846305955277787 0.0
0.0 0.0017845926751330623 0.0
0.0 0.001784593717969721 0.0
0.0 0.0017846225598350893 0.0
0.0 0.0017846276120751133 0.0
0.0 0.0017846065429330512 0.0
0.0 0.0017845992480592222 0.0
0.0 0.0017846144354902694 0.0
0.0 0.0017846219654828702 0.0
0.0 0.0017846109521448938 0.0
0.0 0.0017846041270538318 0.0
0.0 0.001784612303904382 0.0
0.0 0.0017846180859748223 0.0
0.0 0.0017846118093540993 0.0
0.0 0.0017846071375450696 0.0
0.0 0.0017846121566243913 0.0
0.0 0.0017846157896346995 0.0
0.0 0.001784611630628234 0.0
0.0 0.0017846089377346332 0.0
0.0 0.0017846124904907792 0.0
0.0 0.0017846143646173566 0.0
0.0 0.001784611287499327 0.0
0.0 0.0017846101321753916 0.0
0.0 0.0017846128066699787 0.0
0.0 0.0017846133537534664 0.0
0.0 0.0017846110687796267 0.0
0.0 0.0017846110358273666 0.0
0.0 0.0017846129338639461 0.0
0.0 0.0017846125640222591 0.0
0.0 0.001784611075276419 0.0
0.0 0.0017846117443971355 0.0
0.0 0.0017846128196368316 0.0
0.0 0.0017846119753138626 0.0
0.0 0.0017846113161296936 0.0
0.0 0.001784612224341531 0.0
0.0 0.0017846125014304565 0.0
0.0 0.001784611649283412 0.0
0.0 0.0017846117058682783 0.0
0.0 0.0017846124110574395 0.0
0.0 0.0017846121110991623 0.0
0.0 0.0017846116277096217 0.0
0.0 0.0017846120745776326 0.0
0.0 0.001784612311590307 0.0
0.0 0.0017846118349550922 0.0
0.0 0.0017846118387364208 0.0
0.0 0.0017846122493427622 0.0
0.0 0.0017846120648934748 0.0
0.0 0.0017846118003407535 0.0
0.0 0.0017846120879757915 0.0
0.0 0.0017846121805441457 0.0
0.0 0.0017846118890641675 0.0
0.0 0.0017846119606426576 0.0
0.0 0.001784612179815708 0.0
0.0 0.001784612004451761 0.0
0.0 0.0017846119125880446 0.0
0.0 0.0017846121192583734 0.0
0.0 0.0017846120864265466 0.0
0.0 0.0017846119280813465 0.0
0.0 0.001784612052697585 0.0
0.0 0.0017846121206913817 0.0
0.0 0.001784611973213671 0.0
0.0 0.0017846120078925639 0.0
0.0 0.0017846121190842725 0.0
0.0 0.001784612020753874 0.0
0.0 0.0017846119898978687 0.0
0.0 0.0017846120998258853 0.0
0.0 0.0017846120571184175 0.0
0.0 0.0017846119919094814 0.0
0.0 0.0017846120774329148 0.0
0.0 0.0017846120790923597 0.0
0.0 0.001784612004757912 0.0
0.0 0.001784612059693878 0.0
0.0 0.001784612088972954 0.0
0.0 0.001784612021408909 0.0
0.0 0.0017846120487303562 0.0
0.0 0.001784612091109187 0.0
0.0 0.0017846120375054314 0.0
0.0 0.0017846120438128994 0.0
0.0 0.0017846120894468272 0.0
0.0 0.001784612051027515 0.0
0.0 0.0017846120431549454 0.0
0.0 0.0017846120868836991 0.0
0.0 0.0017846120611481984 0.0
0.0 0.0017846120454388834 0.0
0.0 0.0017846120846036874 0.0
0.0 0.0017846120682826075 0.0
0.0 0.0017846120494528872 0.0
0.0 0.0017846120829986014 0.0
0.0 0.001784612073240044 0.0
0.0 0.001784612054268978 0.0
0.0 0.0017846120820182248 0.0
0.0 0.0017846120769738274 0.0
0.0 0.0017846120589892676 0.0
0.0 0.0017846120817947033 0.0
0.0 0.001784612079969958 0.0
0.0 0.0017846120631176544 0.0
0.0 0.0017846120824905817 0.0
0.0 0.0017846120822576856 0.0
0.0 0.0017846120666971485 0.0
0.0 0.0017846120839868271 0.0
0.0 0.0017846120838167837 0.0
0.0 0.0017846120699893141 0.0
0.0 0.0017846120859773737 0.0
0.0 0.0017846120846742824 0.0
0.0 0.0017846120733734537 0.0
0.0 0.0017846120878734202 0.0
0.0 0.0017846120852814992 0.0
0.0 0.0017846120767499528 0.0
0.0 0.001784612089475093 0.0
0.0 0.0017846120859108675 0.0
0.0 0.00178461207998807 0.0
0.0 0.0017846120906874956 0.0
0.0 0.0017846120868427206 0.0
0.0 0.0017846120827192747 0.0
0.0 0.0017846120918636973 0.0
0.0 0.0017846120878310609 0.0
0.0 0.0017846120850210617 0.0
0.0 0.0017846120930935106 0.0
0.0 0.001784612088704412 0.0
0.0 0.001784612087003024 0.0
0.0 0.001784612094454995 0.0
0.0 0.001784612089169194 0.0
0.0 0.001784612089076928 0.0
0.0 0.0017846120955913828 0.0
0.0 0.0017846120893745736 0.0
0.0 0.0017846120913430786 0.0
0.0 0.0017846120962511983 0.0
0.0 0.0017846120895335423 0.0
0.0 0.0017846120938035922 0.0
0.0 0.00178461209615979 0.0
0.0 0.0017846120900862465 0.0
0.0 0.0017846120960737276 0.0
0.0 0.001784612095441391 0.0
0.0 0.0017846120912240401 0.0
0.0 0.0017846120977920888 0.0
0.0 0.0017846120943612884 0.0
0.0 0.0017846120929940407 0.0
0.0 0.0017846120985840024 0.0
0.0 0.0017846120934118094 0.0
0.0 0.0017846120950880788 0.0
0.0 0.0017846120983851163 0.0
0.0 0.00178461209296802 0.0
0.0 0.0017846120970987903 0.0
0.0 0.0017846120973291357 0.0
0.0 0.0017846120932891506 0.0
0.0 0.0017846120985299456 0.0
0.0 0.001784612095823716 0.0
0.0 0.0017846120943235554 0.0
0.0 0.0017846120943235616 0.0
0.0 0.0017846120958237178 0.0
0.0 0.0017846120985299282 0.0
0.0 0.001784612093289162 0.0
0.0 0.0017846120973291392 0.0
0.0 0.0017846120970987924 0.0
0.0 0.0017846120929680283 0.0
0.0 0.001784612098385121 0.0
0.0 0.0017846120950880718 0.0
0.0 0.001784612093411801 0.0
0.0 0.0017846120985840082 0.0
0.0 0.0017846120929940585 0.0
0.0 0.0017846120943612808 0.0
0.0 0.0017846120977920796 0.0
0.0 0.001784612091224047 0.0
0.0 0.0017846120954413895 0.0
0.0 0.0017846120960737465 0.0
0.0 0.0017846120900862448 0.0
0.0 0.001784612096159789 0.0
0.0 0.0017846120938035939 0.0
0.0 0.0017846120895335495 0.0
0.0 0.0017846120962512022 0.0
0.0 0.0017846120913430949 0.0
0.0 0.0017846120893745983 0.0
0.0 0.0017846120955913882 0.0
0.0 0.001784612089076932 0.0
0.0 0.00178461208916921 0.0
0.0 0.001784612094454993 0.0
0.0 0.0017846120870030177 0.0
0.0 0.0017846120887043963 0.0
0.0 0.0017846120930935087 0.0
0.0 0.0017846120850210875 0.0
0.0 0.0017846120878310654 0.0
0.0 0.0017846120918636919 0.0
0.0 0.0017846120827192669 0.0
0.0 0.001784612086842744 0.0
0.0 0.0017846120906874852 0.0
0.0 0.0017846120799880827 0.0
0.0 0.0017846120859108727 0.0
0.0 0.001784612089475084 0.0
0.0 0.0017846120767499461 0.0
0.0 0.001784612085281518 0.0
0.0 0.0017846120878734168 0.0
0.0 0.0017846120733734548 0.0
0.0 0.0017846120846742913 0.0
0.0 0.0017846120859773694 0.0
0.0 0.0017846120699893198 0.0
0.0 0.0017846120838167824 0.0
0.0 0.0017846120839868232 0.0
0.0 0.0017846120666971642 0.0
0.0 0.0017846120822576797 0.0
0.0 0.0017846120824905837 0.0
0.0 0.001784612063117655 0.0
0.0 0.001784612079969959 0.0
0.0 0.0017846120817946998 0.0
0.0 0.0017846120589892474 0.0
0.0 0.0017846120769738226 0.0
0.0 0.0017846120820182165 0.0
0.0 0.0017846120542689592 0.0
0.0 0.0017846120732400422 0.0
0.0 0.0017846120829986259 0.0
0.0 0.0017846120494528807 0.0
0.0 0.0017846120682826106 0.0
0.0 0.00178461208460368 0.0
0.0 0.001784612045438889 0.0
0.0 0.0017846120611481925 0.0
0.0 0.0017846120868836993 0.0
0.0 0.0017846120431549459 0.0
0.0 0.0017846120510275224 0.0
0.0 0.0017846120894468244 0.0
0.0 0.0017846120438129057 0.0
0.0 0.0017846120375054298 0.0
0.0 0.0017846120911091782 0.0
0.0 0.001784612048730365 0.0
0.0 0.001784612021408925 0.0
0.0 0.001784612088972935 0.0
0.0 0.0017846120596938801 0.0
0.0 0.0017846120047578984 0.0
0.0 0.0017846120790923669 0.0
0.0 0.001784612077432897 0.0
0.0 0.0017846119919094898 0.0
0.0 0.0017846120571184162 0.0
0.0 0.0017846120998258842 0.0
0.0 0.0017846119898978696 0.0
0.0 0.0017846120207538772 0.0
0.0 0.0017846121190842681 0.0
0.0 0.00178461200789256 0.0
0.0 0.0017846119732136674 0.0
0.0 0.0017846121206913793 0.0
0.0 0.0017846120526975775 0.0
0.0 0.0017846119280813457 0.0
0.0 0.00178461208642655 0.0
0.0 0.0017846121192583754 0.0
0.0 0.0017846119125880416 0.0
0.0 0.0017846120044517724 0.0
0.0 0.0017846121798157067 0.0
0.0 0.0017846119606426552 0.0
0.0 0.0017846118890641825 0.0
0.0 0.0017846121805441552 0.0
0.0 0.0017846120879758114 0.0
0.0 0.001784611800340774 0.0
0.0 0.0017846120648934765 0.0
0.0 0.0017846122493427566 0.0
0.0 0.0017846118387364167 0.0
0.0 0.0017846118349550992 0.0
0.0 0.0017846123115903099 0.0
0.0 0.001784612074577632 0.0
0.0 0.0017846116277096152 0.0
0.0 0.0017846121110991627 0.0
0.0 0.001784612411057427 0.0
0.0 0.0017846117058682763 0.0
0.0 0.0017846116492834265 0.0
0.0 0.0017846125014304543 0.0
0.0 0.0017846122243415326 0.0
0.0 0.0017846113161296842 0.0
0.0 0.0017846119753138596 0.0
0.0 0.0017846128196368418 0.0
0.0 0.0017846117443971329 0.0
0.0 0.0017846110752764187 0.0
0.0 0.001784612564022278 0.0
0.0 0.0017846129338639587 0.0
0.0 0.0017846110358273755 0.0
0.0 0.0017846110687796224 0.0
0.0 0.0017846133537534519 0.0
0.0 0.001784612806669971 0.0
0.0 0.0017846101321754013 0.0
0.0 0.0017846112874993296 0.0
0.0 0.001784614364617343 0.0
0.0 0.0017846124904907857 0.0
0.0 0.0017846089377346209 0.0
0.0 0.0017846116306282234 0.0
0.0 0.001784615789634694 0.0
0.0 0.0017846121566244047 0.0
0.0 0.0017846071375450555 0.0
0.0 0.0017846118093541043 0.0
0.0 0.0017846180859748277 0.0
0.0 0.0017846123039043894 0.0
0.0 0.0017846041270538273 0.0
0.0 0.0017846109521448973 0.0
0.0 0.0017846219654828618 0.0
0.0 0.0017846144354902727 0.0
0.0 0.0017845992480592166 0.0
0.0 0.0017846065429330436 0.0
0.0 0.0017846276120751083 0.0
0.0 0.001784622559835102 0.0
0.0 0.0017845937179697328 0.0
0.0 0.0017845926751330655 0.0
0.0 0.0017846305955277811 0.0
0.0 0.0017846442940725436 0.0
0.0 0.001784598286841934 0.0
0.0 0.0017845620454841548 0.0
0.0 0.0017846094134752316 0.0
0.0 0.001784680330628178 0.0
0.0 0.0017846494097605312 0.0
0.0 0.0017845348689358054 0.0
0.0 0.0017845144874731754 0.0
0.0 0.0017846640816198498 0.0
0.0 0.0017847876875564696 0.0
0.0 0.001784655720131448 0.0
0.0 0.0017843818565114419 0.0
0.0 0.0017843678845440281 0.0
0.0 0.001784763388768474 0.0
0.0 0.0017851213959057864 0.0
0.0 0.0017848417761806218 0.0
0.0 0.0017840213643510905 0.0
0.0 0.0017836311756623258 0.0
0.0 0.0017845238365975476 0.0
0.0 0.0017861690936210556 0.0
0.0 0.001786658804363918 0.0
0.0 0.0017844838503097544 0.0
0.0 0.0017806923217857404 0.0
0.0 0.001779144931582576 0.0
0.0 0.0017837427288542713 0.0
0.0 0.0017939123146947385 0.0
0.0 0.0018013415962201938 0.0
0.0 0.0017905585230260227 0.0
0.0 0.0017436953881030547 0.0
0.0 0.0016472801003198053 0.0
0.0 0.0014977752229414598 0.0
0.0 0.00130338455796806 0.0
0.0 0.0010816459352048103 0.0
0.0 0.000854246942879201 0.0
0.0 0.0006413811739140342 0.0
0.0 0.0004576306092539389 0.0
0.0 0.0003102944766363146 0.0
0.0 0.0001999707773471721 0.0
0.0 0.00012251492861878321 0.0
0.0 7.137114245138996e-05 0.0
0.0 3.953721335440948e-05 0.0
0.0 2.082640341960622e-05 0.0
0.0 1.0428945911944222e-05 0.0
0.0 4.962230767408317e-06 0.0
0.0 2.241784987967497e-06 0.0
0.0 9.605295541370557e-07 0.0
0.0 3.897230444272292e-07 0.0
0.0 1.4941758854310366e-07 0.0
0.0 5.3956304753080577e-08 0.0
0.0 1.8191388465100612e-08 0.0
0.0 5.335976353769737e-09 0.0
0.0 5.3359763537639395e-09 0.0
0.0 1.8191388465070942e-08 0.0
0.0 5.395630475296216e-08 0.0
0.0 1.4941758854270466e-07 0.0
0.0 3.897230444259788e-07 0.0
0.0 9.605295541334386e-07 0.0
0.0 2.2417849879576793e-06 0.0
0.0 4.962230767383543e-06 0.0
0.0 1.0428945911886266e-05 0.0
0.0 2.0826403419483068e-05 0.0
0.0 3.9537213354169744e-05 0.0
0.0 7.137114245096307e-05 0.0
0.0 0.000122514928618073 0.0
0.0 0.00019997077734605926 0.0
0.0 0.00031029447663468346 0.0
0.0 0.0004576306092517148 0.0
0.0 0.0006413811739112113 0.0
0.0 0.0008542469428758932 0.0
0.0 0.0010816459352012689 0.0
0.0 0.0013033845579646284 0.0
0.0 0.0014977752229385069 0.0
0.0 0.0016472801003176247 0.0
0.0 0.0017436953881017684 0.0
0.0 0.0017905585230255081 0.0
0.0 0.001801341596220221 0.0
0.0 0.0017939123146949911 0.0
0.0 0.001783742728854479 0.0
0.0 0.001779144931582614 0.0
0.0 0.0017806923217856285 0.0
0.0 0.0017844838503096338 0.0
0.0 0.0017866588043638895 0.0
0.0 0.0017861690936211128 0.0
0.0 0.0017845238365976112 0.0
0.0 0.0017836311756623394 0.0
0.0 0.001784021364351056 0.0
0.0 0.0017848417761805993 0.0
0.0 0.0017851213959057931 0.0
0.0 0.0017847633887685059 0.0
0.0 0.001784367884544048 0.0
0.0 0.0017843818565114414 0.0
0.0 0.0017846557201314293 0.0
0.0 0.0017847876875564611 0.0
0.0 0.0017846640816198613 0.0
0.0 0.0017845144874731752 0.0
0.0 0.0017845348689357978 0.0
0.0 0.001784649409760524 0.0
0.0 0.0017846803306281788 0.0
0.0 0.00178460941347523 0.0
0.0 0.0017845620454841548 0.0
0.0 0.001784598286841928 0.0
0.0 0.001784644294072543 0.0
0.0 0.0017846305955277798 0.0
0.0 0.001784592675133055 0.0
0.0 0.001784593717969729 0.0
0.0 0.0017846225598350924 0.0
0.0 0.0017846276120751124 0.0
0.0 0.0017846065429330525 0.0
0.0 0.0017845992480592203 0.0
0.0 0.0017846144354902644 0.0
0.0 0.001784621965482867 0.0
0.0 0.001784610952144898 0.0
0.0 0.001784604127053826 0.0
0.0 0.0017846123039043935 0.0
0.0 0.0017846180859748427 0.0
0.0 0.0017846118093541117 0.0
0.0 0.0017846071375450462 0.0
0.0 0.001784612156624402 0.0
0.0 0.001784615789634696 0.0
0.0 0.001784611630628225 0.0
0.0 0.0017846089377346194 0.0
0.0 0.001784612490490782 0.0
0.0 0.0017846143646173469 0.0
0.0 0.001784611287499326 0.0
0.0 0.001784610132175404 0.0
0.0 0.0017846128066699829 0.0
0.0 0.0017846133537534606 0.0
0.0 0.0017846110687796135 0.0
0.0 0.0017846110358273708 0.0
0.0 0.0017846129338639622 0.0
0.0 0.0017846125640222756 0.0
0.0 0.0017846110752764211 0.0
0.0 0.0017846117443971318 0.0
0.0 0.0017846128196368444 0.0
0.0 0.0017846119753138524 0.0
0.0 0.0017846113161296855 0.0
0.0 0.0017846122243415305 0.0
0.0 0.0017846125014304595 0.0
0.0 0.0017846116492834254 0.0
0.0 0.0017846117058682674 0.0
0.0 0.0017846124110574304 0.0
0.0 0.001784612111099174 0.0
0.0 0.001784611627709617 0.0
0.0 0.0017846120745776274 0.0
0.0 0.0017846123115903168 0.0
0.0 0.001784611834955105 0.0
0.0 0.001784611838736426 0.0
0.0 0.0017846122493427722 0.0
0.0 0.0017846120648934772 0.0
0.0 0.001784611800340775 0.0
0.0 0.0017846120879758183 0.0
0.0 0.0017846121805441542 0.0
0.0 0.0017846118890641766 0.0
0.0 0.0017846119606426515 0.0
0.0 0.0017846121798157134 0.0
0.0 0.0017846120044517763 0.0
0.0 0.0017846119125880587 0.0
0.0 0.0017846121192583862 0.0
0.0 0.0017846120864265416 0.0
0.0 0.001784611928081348 0.0
0.0 0.0017846120526975868 0.0
0.0 0.0017846121206913823 0.0
0.0 0.0017846119732136583 0.0
0.0 0.0017846120078925556 0.0
0.0 0.0017846121190842718 0.0
0.0 0.0017846120207538813 0.0
0.0 0.0017846119898978611 0.0
0.0 0.0017846120998258794 0.0
0.0 0.0017846120571184134 0.0
0.0 0.0017846119919094916 0.0
0.0 0.0017846120774328927 0.0
0.0 0.0017846120790923695 0.0
0.0 0.0017846120047578958 0.0
0.0 0.0017846120596938769 0.0
0.0 0.0017846120889729305 0.0
0.0 0.0017846120214089225 0.0
0.0 0.0017846120487303645 0.0
0.0 0.001784612091109183 0.0
0.0 0.0017846120375054368 0.0
0.0 0.0017846120438129048 0.0
0.0 0.0017846120894468363 0.0
0.0 0.0017846120510275195 0.0
0.0 0.0017846120431549495 0.0
0.0 0.001784612086883714 0.0
0.0 0.0017846120611482025 0.0
0.0 0.001784612045438895 0.0
0.0 0.0017846120846036848 0.0
0.0 0.0017846120682826054 0.0
0.0 0.0017846120494528672 0.0
0.0 0.0017846120829986241 0.0
0.0 0.0017846120732400406 0.0
0.0 0.0017846120542689757 0.0
0.0 0.001784612082018226 0.0
0.0 0.00178461207697383 0.0
0.0 0.001784612058989261 0.0
0.0 0.0017846120817946922 0.0
0.0 0.0017846120799699596 0.0
0.0 0.0017846120631176616 0.0
0.0 0.001784612082490594 0.0
0.0 0.0017846120822576782 0.0
0.0 0.001784612066697145 0.0
0.0 0.0017846120839868152 0.0
0.0 0.001784612083816783 0.0
0.0 0.0017846120699893228 0.0
0.0 0.001784612085977367 0.0
0.0 0.0017846120846742963 0.0
0.0 0.0017846120733734628 0.0
0.0 0.00178461208787343 0.0
0.0 0.0017846120852815237 0.0
0.0 0.0017846120767499387 0.0
0.0 0.001784612089475078 0.0
0.0 0.0017846120859108612 0.0
0.0 0.0017846120799880692 0.0
0.0 0.0017846120906874837 0.0
0.0 0.0017846120868427364 0.0
0.0 0.0017846120827192634 0.0
0.0 0.0017846120918636982 0.0
0.0 0.001784612087831073 0.0
0.0 0.0017846120850210745 0.0
0.0 0.0017846120930935076 0.0
0.0 0.0017846120887043974 0.0
0.0 0.0017846120870030106 0.0
0.0 0.001784612094454977 0.0
0.0 0.0017846120891692049 0.0
0.0 0.0017846120890769254 0.0
0.0 0.0017846120955913726 0.0
0.0 0.001784612089374575 0.0
0.0 0.0017846120913430847 0.0
0.0 0.0017846120962512048 0.0
0.0 0.0017846120895335473 0.0
0.0 0.0017846120938035856 0.0
0.0 0.0017846120961597849 0.0
0.0 0.0017846120900862456 0.0
0.0 0.0017846120960737385 0.0
0.0 0.0017846120954413812 0.0
0.0 0.0017846120912240395 0.0
0.0 0.0017846120977920825 0.0
0.0 0.0017846120943612823 0.0
0.0 0.0017846120929940444 0.0
0.0 0.0017846120985839896 0.0
0.0 0.0017846120934117897 0.0
0.0 0.0017846120950880768 0.0
0.0 0.0017846120983851152 0.0
0.0 0.0017846120929680303 0.0
0.0 0.0017846120970987874 0.0
0.0 0.0017846120973291355 0.0
0.0 0.0017846120932891523 0.0
0.0 0.0017846120985299308 0.0
0.0 0.0017846120958237247 0.0
0.0 0.0017846120943235614 0.0
0.0 0.0017846120943235608 0.0
0.0 0.0017846120958237282 0.0
0.0 0.0017846120985299395 0.0
0.0 0.0017846120932891458 0.0
0.0 0.0017846120973291427 0.0
0.0 0.001784612097098788 0.0
0.0 0.0017846120929680262 0.0
0.0 0.0017846120983851174 0.0
0.0 0.0017846120950880673 0.0
0.0 0.001784612093411802 0.0
0.0 0.0017846120985840015 0.0
0.0 0.0017846120929940444 0.0
0.0 0.00178461209436128 0.0
0.0 0.0017846120977920896 0.0
0.0 0.0017846120912240427 0.0
0.0 0.0017846120954413828 0.0
0.0 0.0017846120960737463 0.0
0.0 0.001784612090086244 0.0
0.0 0.0017846120961597912 0.0
0.0 0.0017846120938036006 0.0
0.0 0.0017846120895335417 0.0
0.0 0.0017846120962512072 0.0
0.0 0.0017846120913430747 0.0
0.0 0.001784612089374576 0.0
0.0 0.0017846120955913878 0.0
0.0 0.0017846120890769417 0.0
0.0 0.0017846120891692001 0.0
0.0 0.0017846120944549975 0.0
0.0 0.0017846120870030197 0.0
0.0 0.0017846120887044141 0.0
0.0 0.0017846120930935143 0.0
0.0 0.0017846120850210654 0.0
0.0 0.001784612087831058 0.0
0.0 0.0017846120918636936 0.0
0.0 0.0017846120827192742 0.0
0.0 0.001784612086842721 0.0
0.0 0.0017846120906874934 0.0
0.0 0.0017846120799880636 0.0
0.0 0.0017846120859108612 0.0
0.0 0.0017846120894750787 0.0
0.0 0.001784612076749947 0.0
0.0 0.0017846120852815085 0.0
0.0 0.0017846120878734235 0.0
0.0 0.0017846120733734513 0.0
0.0 0.0017846120846742918 0.0
0.0 0.0017846120859773907 0.0
0.0 0.0017846120699893163 0.0
0.0 0.0017846120838167848 0.0
0.0 0.0017846120839868237 0.0
0.0 0.0017846120666971455 0.0
0.0 0.0017846120822576806 0.0
0.0 0.0017846120824905828 0.0
0.0 0.0017846120631176622 0.0
0.0 0.0017846120799699613 0.0
0.0 0.0017846120817947022 0.0
0.0 0.0017846120589892678 0.0
0.0 0.001784612076973838 0.0
0.0 0.0017846120820182395 0.0
0.0 0.0017846120542689774 0.0
0.0 0.0017846120732400422 0.0
0.0 0.001784612082998617 0.0
0.0 0.0017846120494528887 0.0
0.0 0.0017846120682826153 0.0
0.0 0.0017846120846036746 0.0
0.0 0.0017846120454388873 0.0
0.0 0.0017846120611481955 0.0