# vtk DataFile Version 2.0
data_935
ASCII
DATASET UNSTRUCTURED_GRID
POINTS 804 float
0.0 0.0 0.0
0.1 0.0 0.0
0.1 20.0 0.0
0.0 20.0 0.0
0.0 0.0 -0.1
0.1 0.0 -0.1
0.1 20.0 -0.1
0.0 20.0 -0.1
0.1 0.09999999999992462 0.0
0.1 0.1999999999998517 0.0
0.1 0.2999999999997818 0.0
0.1 0.399999999999712 0.0
0.1 0.4999999999996377 0.0
0.1 0.5999999999995541 0.0
0.1 0.6999999999994495 0.0
0.1 0.7999999999993355 0.0
0.1 0.8999999999992101 0.0
0.1 0.999999999999102 0.0
0.1 1.099999999999006 0.0
0.1 1.199999999998936 0.0
0.1 1.299999999998867 0.0
0.1 1.399999999998797 0.0
0.1 1.499999999998727 0.0
0.1 1.599999999998657 0.0
0.1 1.699999999998587 0.0
0.1 1.799999999998517 0.0
0.1 1.899999999998447 0.0
0.1 1.999999999998378 0.0
0.1 2.099999999998308 0.0
0.1 2.199999999998238 0.0
0.1 2.299999999998168 0.0
0.1 2.399999999998067 0.0
0.1 2.499999999997942 0.0
0.1 2.599999999997706 0.0
0.1 2.699999999997444 0.0
0.1 2.799999999997153 0.0
0.1 2.899999999996861 0.0
0.1 2.999999999996569 0.0
0.1 3.099999999996277 0.0
0.1 3.199999999995984 0.0
0.1 3.299999999995693 0.0
0.1 3.399999999995401 0.0
0.1 3.499999999995108 0.0
0.1 3.599999999994816 0.0
0.1 3.699999999994525 0.0
0.1 3.799999999994232 0.0
0.1 3.89999999999394 0.0
0.1 3.999999999993648 0.0
0.1 4.099999999993356 0.0
0.1 4.199999999993064 0.0
0.1 4.299999999992772 0.0
0.1 4.399999999992479 0.0
0.1 4.499999999992188 0.0
0.1 4.599999999991895 0.0
0.1 4.699999999991603 0.0
0.1 4.799999999991311 0.0
0.1 4.899999999991019 0.0
0.1 4.999999999990727 0.0
0.1 5.099999999990436 0.0
0.1 5.199999999990144 0.0
0.1 5.299999999989851 0.0
0.1 5.399999999989559 0.0
0.1 5.499999999989267 0.0
0.1 5.599999999988975 0.0
0.1 5.699999999988683 0.0
0.1 5.799999999988391 0.0
0.1 5.899999999988099 0.0
0.1 5.999999999987806 0.0
0.1 6.099999999987515 0.0
0.1 6.199999999987222 0.0
0.1 6.299999999986929 0.0
0.1 6.399999999986638 0.0
0.1 6.499999999986345 0.0
0.1 6.599999999986054 0.0
0.1 6.699999999985762 0.0
0.1 6.79999999998547 0.0
0.1 6.899999999985177 0.0
0.1 6.999999999984885 0.0
0.1 7.099999999984593 0.0
0.1 7.199999999984302 0.0
0.1 7.299999999984009 0.0
0.1 7.399999999983717 0.0
0.1 7.499999999983426 0.0
0.1 7.599999999983132 0.0
0.1 7.699999999982841 0.0
0.1 7.799999999982549 0.0
0.1 7.899999999982256 0.0
0.1 7.999999999982034 0.0
0.1 8.099999999981964 0.0
0.1 8.199999999982062 0.0
0.1 8.299999999982214 0.0
0.1 8.399999999982366 0.0
0.1 8.499999999982517 0.0
0.1 8.59999999998267 0.0
0.1 8.699999999982822 0.0
0.1 8.799999999982973 0.0
0.1 8.899999999983125 0.0
0.1 8.999999999983277 0.0
0.1 9.09999999998343 0.0
0.1 9.19999999998358 0.0
0.1 9.299999999983733 0.0
0.1 9.399999999983885 0.0
0.1 9.499999999984038 0.0
0.1 9.599999999984188 0.0
0.1 9.69999999998434 0.0
0.1 9.799999999984493 0.0
0.1 9.899999999984646 0.0
0.1 9.999999999984798 0.0
0.1 10.09999999998495 0.0
0.1 10.1999999999851 0.0
0.1 10.29999999998525 0.0
0.1 10.39999999998541 0.0
0.1 10.49999999998556 0.0
0.1 10.59999999998571 0.0
0.1 10.69999999998586 0.0
0.1 10.79999999998601 0.0
0.1 10.89999999998616 0.0
0.1 10.99999999998632 0.0
0.1 11.09999999998647 0.0
0.1 11.19999999998662 0.0
0.1 11.29999999998677 0.0
0.1 11.39999999998693 0.0
0.1 11.49999999998708 0.0
0.1 11.59999999998723 0.0
0.1 11.69999999998738 0.0
0.1 11.79999999998754 0.0
0.1 11.89999999998769 0.0
0.1 11.99999999998784 0.0
0.1 12.09999999998799 0.0
0.1 12.19999999998814 0.0
0.1 12.2999999999883 0.0
0.1 12.39999999998845 0.0
0.1 12.4999999999886 0.0
0.1 12.59999999998875 0.0
0.1 12.6999999999889 0.0
0.1 12.79999999998905 0.0
0.1 12.89999999998921 0.0
0.1 12.99999999998936 0.0
0.1 13.09999999998951 0.0
0.1 13.19999999998966 0.0
0.1 13.29999999998982 0.0
0.1 13.39999999998997 0.0
0.1 13.49999999999012 0.0
0.1 13.59999999999027 0.0
0.1 13.69999999999042 0.0
0.1 13.79999999999057 0.0
0.1 13.89999999999073 0.0
0.1 13.99999999999088 0.0
0.1 14.09999999999103 0.0
0.1 14.19999999999118 0.0
0.1 14.29999999999134 0.0
0.1 14.39999999999149 0.0
0.1 14.49999999999164 0.0
0.1 14.59999999999179 0.0
0.1 14.69999999999194 0.0
0.1 14.7999999999921 0.0
0.1 14.89999999999225 0.0
0.1 14.9999999999924 0.0
0.1 15.09999999999255 0.0
0.1 15.1999999999927 0.0
0.1 15.29999999999285 0.0
0.1 15.39999999999301 0.0
0.1 15.49999999999316 0.0
0.1 15.59999999999331 0.0
0.1 15.69999999999346 0.0
0.1 15.79999999999362 0.0
0.1 15.89999999999377 0.0
0.1 15.99999999999392 0.0
0.1 16.09999999999407 0.0
0.1 16.19999999999422 0.0
0.1 16.29999999999437 0.0
0.1 16.39999999999453 0.0
0.1 16.49999999999468 0.0
0.1 16.59999999999483 0.0
0.1 16.69999999999498 0.0
0.1 16.79999999999514 0.0
0.1 16.89999999999528 0.0
0.1 16.99999999999544 0.0
0.1 17.09999999999559 0.0
0.1 17.19999999999574 0.0
0.1 17.29999999999589 0.0
0.1 17.39999999999605 0.0
0.1 17.4999999999962 0.0
0.1 17.59999999999635 0.0
0.1 17.6999999999965 0.0
0.1 17.79999999999665 0.0
0.1 17.89999999999681 0.0
0.1 17.99999999999696 0.0
0.1 18.09999999999711 0.0
0.1 18.19999999999726 0.0
0.1 18.29999999999742 0.0
0.1 18.39999999999757 0.0
0.1 18.49999999999772 0.0
0.1 18.59999999999787 0.0
0.1 18.69999999999802 0.0
0.1 18.79999999999818 0.0
0.1 18.89999999999833 0.0
0.1 18.99999999999848 0.0
0.1 19.09999999999863 0.0
0.1 19.19999999999878 0.0
0.1 19.29999999999894 0.0
0.1 19.39999999999909 0.0
0.1 19.49999999999924 0.0
0.1 19.59999999999939 0.0
0.1 19.69999999999955 0.0
0.1 19.7999999999997 0.0
0.1 19.89999999999985 0.0
0.0 19.9 0.0
0.0 19.8 0.0
0.0 19.7 0.0
0.0 19.6 0.0
0.0 19.5 0.0
0.0 19.4 0.0
0.0 19.3 0.0
0.0 19.2 0.0
0.0 19.1 0.0
0.0 19.0 0.0
0.0 18.9 0.0
0.0 18.8 0.0
0.0 18.7 0.0
0.0 18.6 0.0
0.0 18.5 0.0
0.0 18.4 0.0
0.0 18.3 0.0
0.0 18.2 0.0
0.0 18.1 0.0
0.0 18.0 0.0
0.0 17.9 0.0
0.0 17.8 0.0
0.0 17.7 0.0
0.0 17.6 0.0
0.0 17.5 0.0
0.0 17.4 0.0
0.0 17.3 0.0
0.0 17.2 0.0
0.0 17.09999999999999 0.0
0.0 17.0 0.0
0.0 16.9 0.0
0.0 16.8 0.0
0.0 16.7 0.0
0.0 16.59999999999999 0.0
0.0 16.49999999999999 0.0
0.0 16.4 0.0
0.0 16.29999999999999 0.0
0.0 16.2 0.0
0.0 16.09999999999999 0.0
0.0 15.99999999999999 0.0
0.0 15.89999999999999 0.0
0.0 15.79999999999999 0.0
0.0 15.69999999999999 0.0
0.0 15.59999999999999 0.0
0.0 15.49999999999999 0.0
0.0 15.39999999999999 0.0
0.0 15.29999999999999 0.0
0.0 15.19999999999999 0.0
0.0 15.09999999999999 0.0
0.0 14.99999999999999 0.0
0.0 14.89999999999999 0.0
0.0 14.79999999999999 0.0
0.0 14.69999999999999 0.0
0.0 14.59999999999999 0.0
0.0 14.49999999999999 0.0
0.0 14.39999999999999 0.0
0.0 14.29999999999999 0.0
0.0 14.19999999999999 0.0
0.0 14.09999999999999 0.0
0.0 13.99999999999999 0.0
0.0 13.89999999999999 0.0
0.0 13.79999999999999 0.0
0.0 13.69999999999999 0.0
0.0 13.59999999999999 0.0
0.0 13.49999999999999 0.0
0.0 13.39999999999999 0.0
0.0 13.29999999999999 0.0
0.0 13.19999999999999 0.0
0.0 13.09999999999999 0.0
0.0 12.99999999999999 0.0
0.0 12.89999999999999 0.0
0.0 12.79999999999999 0.0
0.0 12.69999999999999 0.0
0.0 12.59999999999999 0.0
0.0 12.49999999999999 0.0
0.0 12.39999999999999 0.0
0.0 12.29999999999999 0.0
0.0 12.19999999999999 0.0
0.0 12.09999999999999 0.0
0.0 11.99999999999999 0.0
0.0 11.89999999999999 0.0
0.0 11.79999999999999 0.0
0.0 11.69999999999999 0.0
0.0 11.59999999999999 0.0
0.0 11.49999999999999 0.0
0.0 11.39999999999999 0.0
0.0 11.29999999999999 0.0
0.0 11.19999999999999 0.0
0.0 11.09999999999999 0.0
0.0 10.99999999999999 0.0
0.0 10.89999999999999 0.0
0.0 10.79999999999999 0.0
0.0 10.69999999999999 0.0
0.0 10.59999999999999 0.0
0.0 10.49999999999999 0.0
0.0 10.39999999999999 0.0
0.0 10.29999999999999 0.0
0.0 10.19999999999999 0.0
0.0 10.09999999999999 0.0
0.0 9.999999999999993 0.0
0.0 9.899999999999993 0.0
0.0 9.799999999999994 0.0
0.0 9.699999999999992 0.0
0.0 9.599999999999993 0.0
0.0 9.499999999999993 0.0
0.0 9.399999999999993 0.0
0.0 9.299999999999995 0.0
0.0 9.199999999999996 0.0
0.0 9.099999999999994 0.0
0.0 8.999999999999995 0.0
0.0 8.899999999999995 0.0
0.0 8.799999999999994 0.0
0.0 8.699999999999994 0.0
0.0 8.599999999999994 0.0
0.0 8.499999999999995 0.0
0.0 8.399999999999995 0.0
0.0 8.299999999999994 0.0
0.0 8.199999999999994 0.0
0.0 8.099999999999994 0.0
0.0 7.999999999999993 0.0
0.0 7.899999999999995 0.0
0.0 7.799999999999995 0.0
0.0 7.699999999999996 0.0
0.0 7.599999999999996 0.0
0.0 7.499999999999996 0.0
0.0 7.399999999999995 0.0
0.0 7.299999999999995 0.0
0.0 7.199999999999996 0.0
0.0 7.099999999999994 0.0
0.0 6.999999999999995 0.0
0.0 6.899999999999995 0.0
0.0 6.799999999999995 0.0
0.0 6.699999999999996 0.0
0.0 6.599999999999994 0.0
0.0 6.499999999999995 0.0
0.0 6.399999999999997 0.0
0.0 6.299999999999997 0.0
0.0 6.199999999999996 0.0
0.0 6.099999999999996 0.0
0.0 5.999999999999996 0.0
0.0 5.899999999999997 0.0
0.0 5.799999999999997 0.0
0.0 5.699999999999996 0.0
0.0 5.599999999999996 0.0
0.0 5.499999999999996 0.0
0.0 5.399999999999995 0.0
0.0 5.299999999999995 0.0
0.0 5.199999999999996 0.0
0.0 5.099999999999996 0.0
0.0 4.999999999999998 0.0
0.0 4.899999999999999 0.0
0.0 4.799999999999997 0.0
0.0 4.699999999999998 0.0
0.0 4.599999999999998 0.0
0.0 4.499999999999996 0.0
0.0 4.399999999999997 0.0
0.0 4.299999999999997 0.0
0.0 4.199999999999998 0.0
0.0 4.099999999999998 0.0
0.0 3.999999999999996 0.0
0.0 3.899999999999999 0.0
0.0 3.799999999999997 0.0
0.0 3.699999999999996 0.0
0.0 3.599999999999998 0.0
0.0 3.5 0.0
0.0 3.399999999999999 0.0
0.0 3.299999999999997 0.0
0.0 3.199999999999999 0.0
0.0 3.099999999999998 0.0
0.0 3.0 0.0
0.0 2.899999999999999 0.0
0.0 2.799999999999997 0.0
0.0 2.699999999999999 0.0
0.0 2.599999999999998 0.0
0.0 2.499999999999996 0.0
0.0 2.399999999999999 0.0
0.0 2.299999999999997 0.0
0.0 2.199999999999999 0.0
0.0 2.100000000000001 0.0
0.0 2.0 0.0
0.0 1.899999999999999 0.0
0.0 1.800000000000001 0.0
0.0 1.699999999999999 0.0
0.0 1.599999999999998 0.0
0.0 1.5 0.0
0.0 1.399999999999999 0.0
0.0 1.299999999999997 0.0
0.0 1.199999999999999 0.0
0.0 1.099999999999998 0.0
0.0 1.0 0.0
0.0 0.8999999999999986 0.0
0.0 0.8000000000000007 0.0
0.0 0.6999999999999993 0.0
0.0 0.6000000000000014 0.0
0.0 0.5 0.0
0.0 0.3999999999999986 0.0
0.0 0.3000000000000007 0.0
0.0 0.1999999999999993 0.0
[...]
POINT_DATA 804
VECTORS displacement double
0.0 0.0 0.0
0.0 0.0 0.0
0.0 0.0017837886589603662 0.0
0.0 0.001783788658960366 0.0
0.0 0.0 0.0
0.0 0.0 0.0
0.0 0.001783788658960371 0.0
0.0 0.0017837886589603812 0.0
0.0 2.7146940571507918e-11 0.0
0.0 1.023186733255918e-11 0.0
0.0 2.8877912041026027e-11 0.0
0.0 6.997189609322563e-11 0.0
0.0 5.1198363991513496e-11 0.0
0.0 4.7808313445471356e-11 0.0
0.0 1.0860854195985389e-10 0.0
0.0 1.0956555745035177e-10 0.0
0.0 6.628649520835084e-11 0.0
0.0 1.2216621426293306e-10 0.0
0.0 1.7929800249079207e-10 0.0
0.0 1.1434778877072692e-10 0.0
0.0 1.0770941529445402e-10 0.0
0.0 2.2143166984694607e-10 0.0
0.0 2.108347044225952e-10 0.0
0.0 1.0971633348216578e-10 0.0
0.0 1.9405386648906618e-10 0.0
0.0 3.1274094792825573e-10 0.0
0.0 1.9931902052779036e-10 0.0
0.0 1.2822734474522322e-10 0.0
0.0 3.1561615246453124e-10 0.0
0.0 3.710428611115021e-10 0.0
0.0 1.6293957807748163e-10 0.0
0.0 1.830713516316086e-10 0.0
0.0 4.5330398849891215e-10 0.0
0.0 3.951339968949038e-10 0.0
0.0 1.1415883685189569e-10 0.0
0.0 2.6736526945903355e-10 0.0
0.0 6.062754083112035e-10 0.0
0.0 3.940201454023482e-10 0.0
0.0 4.100651416065862e-11 0.0
0.0 3.7502367364938533e-10 0.0
0.0 7.973652038359284e-10 0.0
0.0 3.6957027874241405e-10 0.0
0.0 -8.761967035668214e-11 0.0
0.0 5.045407327082049e-10 0.0
0.0 1.0658125001512262e-09 0.0
0.0 3.315012294818455e-10 0.0
0.0 -3.23386858810331e-10 0.0
0.0 6.260250215236521e-10 0.0
0.0 1.483791809304385e-09 0.0
0.0 3.4481792382962124e-10 0.0
0.0 -7.669466573595471e-10 0.0
0.0 6.189395322667661e-10 0.0
0.0 2.181414633254988e-09 0.0
0.0 6.173958095181212e-10 0.0
0.0 -1.5618828372970027e-09 0.0
0.0 1.3770693242235294e-10 0.0
0.0 3.267524071161777e-09 0.0
0.0 1.7041878708045896e-09 0.0
0.0 -2.6764619359851627e-09 0.0
0.0 -1.6624383018910718e-09 0.0
0.0 4.364980771436694e-09 0.0
0.0 4.782096925964719e-09 0.0
0.0 -3.028255981135637e-09 0.0
0.0 -6.181007601341763e-09 0.0
0.0 3.126621045028609e-09 0.0
0.0 1.0983393725907874e-08 0.0
0.0 1.7012715766792566e-09 0.0
0.0 -1.3026578231287401e-08 0.0
0.0 -7.243862022489159e-09 0.0
0.0 1.5871517501471122e-08 0.0
0.0 2.0089561463254216e-08 0.0
0.0 -9.677490197292428e-09 0.0
0.0 -3.3090560263125915e-08 0.0
0.0 -5.6304656835858376e-09 0.0
0.0 4.563447046173184e-08 0.0
0.0 4.1625360284907565e-08 0.0
0.0 -3.5319119755868077e-08 0.0
0.0 -8.80112755825307e-08 0.0
0.0 -1.689452547380491e-08 0.0
0.0 1.2106973362649235e-07 0.0
0.0 1.356840176472407e-07 0.0
0.0 -6.033719074653144e-08 0.0
0.0 -2.7243101111485034e-07 0.0
0.0 -1.8235266253971305e-07 0.0
0.0 2.4825867299624974e-07 0.0
0.0 5.840826211533925e-07 0.0
0.0 2.7561860191823674e-07 0.0
0.0 -6.59441437796591e-07 0.0
0.0 -1.3426473484752684e-06 0.0
0.0 -6.524488345790991e-07 0.0
0.0 1.5411676817163725e-06 0.0
0.0 3.588037274816525e-06 0.0
0.0 2.7569115981505476e-06 0.0
0.0 -2.4749365444634954e-06 0.0
0.0 -9.662041966651186e-06 0.0
0.0 -1.0887010019823229e-05 0.0
0.0 6.2488920521277495e-06 0.0
0.0 5.519789908078105e-05 0.0
0.0 0.0001459569825079144 0.0
0.0 0.00028138654777315367 0.0
0.0 0.00045583115057713905 0.0
0.0 0.000656434632484756 0.0
0.0 0.0008664333667584401 0.0
0.0 0.0010690898930110335 0.0
0.0 0.001250962346388385 0.0
0.0 0.001403720219254722 0.0
0.0 0.001524378832616727 0.0
0.0 0.001614337479945119 0.0
0.0 0.0016778296705845083 0.0
0.0 0.001720349071905806 0.0
0.0 0.001747415377223739 0.0
0.0 0.0017638159144046893 0.0
0.0 0.001773285679463468 0.0
0.0 0.001778500108733179 0.0
0.0 0.0017812396353816674 0.0
0.0 0.0017826131894636244 0.0
0.0 0.0017832703975321378 0.0
0.0 0.0017835703917822552 0.0
0.0 0.0017837009523737504 0.0
0.0 0.0017837550756528385 0.0
0.0 0.0017837764179760597 0.0
0.0 0.0017837844087428914 0.0
0.0 0.0017837872422051576 0.0
0.0 0.0017837881909690727 0.0
0.0 0.0017837884899386336 0.0
0.0 0.001783788578215826 0.0
0.0 0.0017837886030596614 0.0
0.0 0.001783788610052501 0.0
0.0 0.0017837886123676574 0.0
0.0 0.0017837886138577957 0.0
0.0 0.001783788614992995 0.0
0.0 0.0017837886160741337 0.0
0.0 0.0017837886172935187 0.0
0.0 0.0017837886183177775 0.0
0.0 0.0017837886194170458 0.0
0.0 0.0017837886205552026 0.0
0.0 0.0017837886215300517 0.0
0.0 0.0017837886226266108 0.0
0.0 0.0017837886236748259 0.0
0.0 0.0017837886246218572 0.0
0.0 0.0017837886256969679 0.0
0.0 0.001783788626654632 0.0
0.0 0.0017837886275940218 0.0
0.0 0.0017837886286221694 0.0
0.0 0.0017837886295013973 0.0
0.0 0.0017837886304443713 0.0
0.0 0.0017837886313972176 0.0
0.0 0.001783788632225073 0.0
0.0 0.0017837886331647768 0.0
0.0 0.0017837886340217525 0.0
0.0 0.001783788634836637 0.0
0.0 0.0017837886357375148 0.0
0.0 0.0017837886365118661 0.0
0.0 0.0017837886373296473 0.0
0.0 0.0017837886381562437 0.0
0.0 0.0017837886388832164 0.0
0.0 0.0017837886396873599 0.0
0.0 0.0017837886404305418 0.0
0.0 0.0017837886411371914 0.0
0.0 0.0017837886418994762 0.0
0.0 0.0017837886425732285 0.0
0.0 0.00178378864326562 0.0
0.0 0.0017837886439661743 0.0
0.0 0.0017837886445905683 0.0
0.0 0.0017837886452600977 0.0
0.0 0.0017837886458929241 0.0
0.0 0.0017837886464819536 0.0
0.0 0.0017837886471183694 0.0
0.0 0.0017837886476809452 0.0
0.0 0.001783788648250479 0.0
0.0 0.0017837886488329734 0.0
0.0 0.0017837886493387827 0.0
0.0 0.0017837886498913585 0.0
0.0 0.001783788650401745 0.0
0.0 0.0017837886508748667 0.0
0.0 0.001783788651394563 0.0
0.0 0.0017837886518298994 0.0
0.0 0.0017837886522933785 0.0
0.0 0.0017837886527463636 0.0
0.0 0.001783788653135924 0.0
0.0 0.0017837886535787897 0.0
0.0 0.0017837886539526498 0.0
0.0 0.0017837886543259837 0.0
0.0 0.0017837886547161703 0.0
0.0 0.0017837886550294123 0.0
0.0 0.0017837886553912507 0.0
0.0 0.0017837886557019666 0.0
0.0 0.0017837886559921262 0.0
0.0 0.0017837886563104226 0.0
0.0 0.0017837886565548152 0.0
0.0 0.0017837886568323159 0.0
0.0 0.0017837886570790556 0.0
0.0 0.001783788657289061 0.0
0.0 0.0017837886575330507 0.0
0.0 0.0017837886577083183 0.0
0.0 0.0017837886579048343 0.0
0.0 0.0017837886580822566 0.0
0.0 0.0017837886582173427 0.0
0.0 0.0017837886583834876 0.0
0.0 0.0017837886584908327 0.0
0.0 0.0017837886586068359 0.0
0.0 0.001783788658714251 0.0
0.0 0.0017837886587740999 0.0
0.0 0.0017837886588644067 0.0
0.0 0.0017837886589005794 0.0
0.0 0.0017837886589395916 0.0
0.0 0.0017837886589742254 0.0
0.0 0.0017837886589742247 0.0
0.0 0.0017837886589396148 0.0
0.0 0.0017837886589005727 0.0
0.0 0.001783788658864422 0.0
0.0 0.0017837886587741079 0.0
0.0 0.001783788658714252 0.0
0.0 0.001783788658606851 0.0
0.0 0.0017837886584908215 0.0
0.0 0.001783788658383489 0.0
0.0 0.0017837886582173605 0.0
0.0 0.001783788658082257 0.0
0.0 0.0017837886579048418 0.0
0.0 0.0017837886577083014 0.0
0.0 0.0017837886575330464 0.0
0.0 0.001783788657289057 0.0
0.0 0.0017837886570790415 0.0
0.0 0.0017837886568323044 0.0
0.0 0.0017837886565548059 0.0
0.0 0.00178378865631041 0.0
0.0 0.0017837886559921162 0.0
0.0 0.0017837886557019638 0.0
0.0 0.0017837886553912548 0.0
0.0 0.0017837886550293993 0.0
0.0 0.0017837886547161722 0.0
0.0 0.0017837886543259909 0.0
0.0 0.0017837886539526248 0.0
0.0 0.0017837886535787707 0.0
0.0 0.0017837886531359226 0.0
0.0 0.0017837886527463486 0.0
0.0 0.0017837886522933798 0.0
0.0 0.0017837886518298994 0.0
0.0 0.001783788651394576 0.0
0.0 0.0017837886508748778 0.0
0.0 0.0017837886504017523 0.0
0.0 0.0017837886498913737 0.0
0.0 0.0017837886493387819 0.0
0.0 0.0017837886488329797 0.0
0.0 0.0017837886482504704 0.0
0.0 0.0017837886476809403 0.0
0.0 0.0017837886471183573 0.0
0.0 0.0017837886464819501 0.0
0.0 0.001783788645892945 0.0
0.0 0.0017837886452601035 0.0
0.0 0.0017837886445905774 0.0
0.0 0.001783788643966187 0.0
0.0 0.0017837886432656024 0.0
0.0 0.0017837886425732218 0.0
0.0 0.0017837886418994571 0.0
0.0 0.0017837886411372057 0.0
0.0 0.0017837886404305603 0.0
0.0 0.0017837886396873538 0.0
0.0 0.0017837886388832084 0.0
0.0 0.0017837886381562441 0.0
0.0 0.0017837886373296584 0.0
0.0 0.0017837886365118733 0.0
0.0 0.0017837886357375068 0.0
0.0 0.001783788634836626 0.0
0.0 0.0017837886340217564 0.0
0.0 0.0017837886331647664 0.0
0.0 0.001783788632225088 0.0
0.0 0.0017837886313972103 0.0
0.0 0.0017837886304443635 0.0
0.0 0.001783788629501411 0.0
0.0 0.0017837886286221777 0.0
0.0 0.001783788627594036 0.0
0.0 0.001783788626654621 0.0
0.0 0.0017837886256969599 0.0
0.0 0.0017837886246218427 0.0
0.0 0.0017837886236748294 0.0
0.0 0.001783788622626608 0.0
0.0 0.001783788621530036 0.0
0.0 0.001783788620555204 0.0
0.0 0.0017837886194170488 0.0
0.0 0.0017837886183177812 0.0
0.0 0.0017837886172935094 0.0
0.0 0.001783788616074124 0.0
0.0 0.0017837886149929911 0.0
0.0 0.001783788613857776 0.0
0.0 0.001783788612367669 0.0
0.0 0.001783788610052499 0.0
0.0 0.001783788603059674 0.0
0.0 0.0017837885782158336 0.0
0.0 0.0017837884899386514 0.0
0.0 0.0017837881909690727 0.0
0.0 0.0017837872422051485 0.0
0.0 0.0017837844087428808 0.0
0.0 0.00178377641797607 0.0
0.0 0.0017837550756528548 0.0
0.0 0.0017837009523737739 0.0
0.0 0.0017835703917822795 0.0
0.0 0.0017832703975321875 0.0
0.0 0.0017826131894637456 0.0
0.0 0.001781239635381933 0.0
0.0 0.001778500108733725 0.0
0.0 0.0017732856794644945 0.0
0.0 0.0017638159144065036 0.0
0.0 0.0017474153772268277 0.0
0.0 0.0017203490719108615 0.0
0.0 0.0016778296705923469 0.0
0.0 0.0016143374799566326 0.0
0.0 0.0015243788326328197 0.0
0.0 0.001403720219275916 0.0
0.0 0.0012509623464147098 0.0
0.0 0.0010690898930417157 0.0
0.0 0.0008664333667917702 0.0
0.0 0.000656434632518286 0.0
0.0 0.0004558311506080597 0.0
0.0 0.00028138654779885435 0.0
0.0 0.00014595698252669155 0.0
0.0 5.5197899092278466e-05 0.0
0.0 6.2488920573568345e-06 0.0
0.0 -1.0887010018862121e-05 0.0
0.0 -9.662041967669235e-06 0.0
0.0 -2.4749365456830365e-06 0.0
0.0 2.756911597618139e-06 0.0
0.0 3.5880372749948356e-06 0.0
0.0 1.5411676821756025e-06 0.0
0.0 -6.5244883429634e-07 0.0
0.0 -1.3426473485007755e-06 0.0
0.0 -6.594414379784346e-07 0.0
0.0 2.7561860180059334e-07 0.0
0.0 5.840826211705207e-07 0.0
0.0 2.482586730822351e-07 0.0
0.0 -1.8235266248892037e-07 0.0
0.0 -2.7243101112723375e-07 0.0
0.0 -6.033719078803553e-08 0.0
0.0 1.3568401762742192e-07 0.0
0.0 1.210697336394327e-07 0.0
0.0 -1.689452544535045e-08 0.0
0.0 -8.801127558306245e-08 0.0
0.0 -3.5319119764334105e-08 0.0
0.0 4.162536027552572e-08 0.0
0.0 4.56344704623559e-08 0.0
0.0 -5.6304656738014415e-09 0.0
0.0 -3.3090560270224455e-08 0.0
0.0 -9.677490202450263e-09 0.0
0.0 2.0089561464261404e-08 0.0
0.0 1.5871517507034762e-08 0.0
0.0 -7.243862024920791e-09 0.0
0.0 -1.3026578232868114e-08 0.0
0.0 1.7012715790595127e-09 0.0
0.0 1.0983393724102109e-08 0.0
0.0 3.1266210433268863e-09 0.0
0.0 -6.181007603026695e-09 0.0
0.0 -3.0282559842773575e-09 0.0
0.0 4.782096925582004e-09 0.0
0.0 4.36498077332698e-09 0.0
0.0 -1.6624383040374386e-09 0.0
0.0 -2.676461936495835e-09 0.0
0.0 1.704187870990339e-09 0.0
0.0 3.2675240707536137e-09 0.0
0.0 1.377069359379764e-10 0.0
0.0 -1.5618828346978393e-09 0.0
0.0 6.173958077358393e-10 0.0
0.0 2.181414634972336e-09 0.0
0.0 6.189395314568961e-10 0.0
0.0 -7.669466606561264e-10 0.0
0.0 3.448179216532509e-10 0.0
0.0 1.483791809802602e-09 0.0
0.0 6.260250196644733e-10 0.0
0.0 -3.2338685920809934e-10 0.0
0.0 3.315012289994896e-10 0.0
0.0 1.0658125019936009e-09 0.0
0.0 5.045407321316519e-10 0.0
0.0 -8.761967101732862e-11 0.0
0.0 3.6957027928576046e-10 0.0
0.0 7.973652029458297e-10 0.0
0.0 3.7502367450441707e-10 0.0
0.0 4.100651516784198e-11 0.0
0.0 3.940201472088647e-10 0.0
0.0 6.062754085678059e-10 0.0
0.0 2.673652708538903e-10 0.0
0.0 1.1415883662732352e-10 0.0
0.0 3.9513399790044535e-10 0.0
0.0 4.533039880717901e-10 0.0
0.0 1.8307135075056902e-10 0.0
0.0 1.6293957665283138e-10 0.0
0.0 3.7104286158484043e-10 0.0
0.0 3.1561615378652803e-10 0.0
0.0 1.2822734504160325e-10 0.0
0.0 1.9931902065658675e-10 0.0
0.0 3.127409482524021e-10 0.0
0.0 1.9405386702346575e-10 0.0
0.0 1.0971633498166296e-10 0.0
0.0 2.1083470641802268e-10 0.0
0.0 2.2143166989777684e-10 0.0
0.0 1.0770941540543142e-10 0.0
0.0 1.1434778908625999e-10 0.0
0.0 1.7929800151687179e-10 0.0
0.0 1.221662137084976e-10 0.0
0.0 6.628649437873627e-11 0.0
0.0 1.0956555723252736e-10 0.0
0.0 1.086085426897591e-10 0.0
0.0 4.780831400557454e-11 0.0
0.0 5.1198363684422784e-11 0.0
0.0 6.997189439961642e-11 0.0
0.0 2.887791084223427e-11 0.0
0.0 1.0231868002335049e-11 0.0
0.0 2.714694059245579e-11 0.0
0.0 2.7146940955765298e-11 0.0
0.0 1.0231867033303658e-11 0.0
0.0 2.8877911410725493e-11 0.0
0.0 6.997189539294474e-11 0.0
0.0 5.119836380705955e-11 0.0
0.0 4.780831342968258e-11 0.0
0.0 1.086085426645508e-10 0.0
0.0 1.0956555792627027e-10 0.0
0.0 6.628649511939476e-11 0.0
0.0 1.2216621441093136e-10 0.0
0.0 1.7929800055018184e-10 0.0
0.0 1.1434778685835059e-10 0.0
0.0 1.0770941411730476e-10 0.0
0.0 2.214316694281575e-10 0.0
0.0 2.108347052775404e-10 0.0
0.0 1.0971633283862317e-10 0.0
0.0 1.9405386590284737e-10 0.0
0.0 3.1274094774774176e-10 0.0
0.0 1.9931901958711452e-10 0.0
0.0 1.2822734349593503e-10 0.0
0.0 3.1561615327605115e-10 0.0
0.0 3.7104286175131286e-10 0.0
0.0 1.6293957656393415e-10 0.0
0.0 1.8307134993225444e-10 0.0
0.0 4.5330398761183994e-10 0.0
0.0 3.9513399942101616e-10 0.0
0.0 1.1415883725399535e-10 0.0
0.0 2.673652702185204e-10 0.0
0.0 6.062754090662185e-10 0.0
0.0 3.9402014754214354e-10 0.0
0.0 4.100651492351062e-11 0.0
0.0 3.750236736716205e-10 0.0
0.0 7.973652037511668e-10 0.0
0.0 3.695702797116219e-10 0.0
0.0 -8.761966904452994e-11 0.0
0.0 5.045407324143303e-10 0.0
0.0 1.0658125020151983e-09 0.0
0.0 3.315012279530174e-10 0.0
0.0 -3.2338685893855525e-10 0.0
0.0 6.260250201846511e-10 0.0
0.0 1.4837918095888514e-09 0.0
0.0 3.4481792338041176e-10 0.0
0.0 -7.669466606414792e-10 0.0
0.0 6.189395310481949e-10 0.0
0.0 2.181414633546535e-09 0.0
0.0 6.173958055460734e-10 0.0
0.0 -1.5618828381491197e-09 0.0
0.0 1.3770693398137482e-10 0.0
0.0 3.26752407171824e-09 0.0
0.0 1.70418787196021e-09 0.0
0.0 -2.676461931711462e-09 0.0
0.0 -1.6624383001290832e-09 0.0
0.0 4.364980773086911e-09 0.0
0.0 4.7820969240997265e-09 0.0
0.0 -3.028255983541096e-09 0.0
0.0 -6.1810076033058075e-09 0.0
0.0 3.126621037877116e-09 0.0
0.0 1.0983393719803461e-08 0.0
0.0 1.7012715778100715e-09 0.0
0.0 -1.3026578229870821e-08 0.0
0.0 -7.243862024805207e-09 0.0
0.0 1.5871517502329967e-08 0.0
0.0 2.008956146527702e-08 0.0
0.0 -9.677490193391085e-09 0.0
0.0 -3.309056026878775e-08 0.0
0.0 -5.630465683322271e-09 0.0
0.0 4.5634470458086675e-08 0.0
0.0 4.1625360280915876e-08 0.0
0.0 -3.5319119757025196e-08 0.0
0.0 -8.801127558559887e-08 0.0
0.0 -1.6894525470571845e-08 0.0
0.0 1.2106973362284312e-07 0.0
0.0 1.3568401764552793e-07 0.0
0.0 -6.033719074497573e-08 0.0
0.0 -2.72431011113331e-07 0.0
0.0 -1.8235266254518498e-07 0.0
0.0 2.4825867299505214e-07 0.0
0.0 5.840826211578753e-07 0.0
0.0 2.7561860192409646e-07 0.0
0.0 -6.594414377946423e-07 0.0
0.0 -1.3426473484810227e-06 0.0
0.0 -6.524488345775012e-07 0.0
0.0 1.5411676817227047e-06 0.0
0.0 3.5880372748130175e-06 0.0
0.0 2.7569115981525694e-06 0.0
0.0 -2.47493654446091e-06 0.0
0.0 -9.662041966640364e-06 0.0
0.0 -1.0887010019828077e-05 0.0
0.0 6.24889205212367e-06 0.0
0.0 5.51978990807784e-05 0.0
0.0 0.00014595698250790618 0.0
0.0 0.00028138654777313567 0.0
0.0 0.00045583115057713466 0.0
0.0 0.0006564346324847625 0.0
0.0 0.0008664333667584436 0.0
0.0 0.001069089893011047 0.0
0.0 0.001250962346388388 0.0
0.0 0.0014037202192547103 0.0
0.0 0.0015243788326167597 0.0
0.0 0.00161433747994513 0.0
0.0 0.0016778296705845215 0.0
0.0 0.0017203490719058046 0.0
0.0 0.0017474153772237388 0.0
0.0 0.001763815914404699 0.0
0.0 0.001773285679463487 0.0
0.0 0.0017785001087331977 0.0
0.0 0.0017812396353816655 0.0
0.0 0.0017826131894636166 0.0
0.0 0.0017832703975321407 0.0
0.0 0.0017835703917822724 0.0
0.0 0.001783700952373758 0.0
0.0 0.0017837550756528396 0.0
0.0 0.001783776417976071 0.0
0.0 0.001783784408742898 0.0
0.0 0.0017837872422051557 0.0
0.0 0.001783788190969073 0.0
0.0 0.0017837884899386547 0.0
0.0 0.0017837885782158362 0.0
0.0 0.0017837886030596757 0.0
0.0 0.0017837886100525015 0.0
0.0 0.0017837886123676604 0.0
0.0 0.0017837886138577866 0.0
0.0 0.001783788614993007 0.0
0.0 0.0017837886160741254 0.0
0.0 0.0017837886172935194 0.0
0.0 0.0017837886183177769 0.0
0.0 0.0017837886194170458 0.0
0.0 0.0017837886205552033 0.0
0.0 0.0017837886215300441 0.0
0.0 0.0017837886226266058 0.0
0.0 0.0017837886236748391 0.0
0.0 0.0017837886246218466 0.0
0.0 0.0017837886256969672 0.0
0.0 0.001783788626654616 0.0
0.0 0.0017837886275940274 0.0
0.0 0.001783788628622176 0.0
0.0 0.0017837886295014118 0.0
0.0 0.0017837886304443579 0.0
0.0 0.001783788631397224 0.0
0.0 0.0017837886322251049 0.0
0.0 0.0017837886331647627 0.0
0.0 0.0017837886340217543 0.0
0.0 0.0017837886348366324 0.0
0.0 0.0017837886357375125 0.0
0.0 0.0017837886365118852 0.0
0.0 0.0017837886373296534 0.0
0.0 0.0017837886381562448 0.0
0.0 0.0017837886388832064 0.0
0.0 0.001783788639687347 0.0
0.0 0.00178378864043056 0.0
0.0 0.001783788641137202 0.0
0.0 0.001783788641899461 0.0
0.0 0.0017837886425732265 0.0
0.0 0.0017837886432656039 0.0
0.0 0.0017837886439661917 0.0
0.0 0.0017837886445905829 0.0
0.0 0.0017837886452601096 0.0
0.0 0.0017837886458929382 0.0
0.0 0.0017837886464819538 0.0
0.0 0.001783788647118365 0.0
0.0 0.001783788647680946 0.0
0.0 0.0017837886482504732 0.0
0.0 0.0017837886488329818 0.0
0.0 0.0017837886493387825 0.0
0.0 0.0017837886498913605 0.0
0.0 0.0017837886504017497 0.0
0.0 0.0017837886508748693 0.0
0.0 0.00178378865139457 0.0
0.0 0.0017837886518298968 0.0
0.0 0.0017837886522933753 0.0
0.0 0.0017837886527463495 0.0
0.0 0.00178378865313591 0.0
0.0 0.0017837886535787845 0.0
0.0 0.0017837886539526268 0.0
0.0 0.0017837886543259898 0.0
0.0 0.0017837886547161592 0.0
0.0 0.0017837886550294082 0.0
0.0 0.0017837886553912646 0.0
0.0 0.001783788655701963 0.0
0.0 0.0017837886559921206 0.0
0.0 0.0017837886563104167 0.0
0.0 0.00178378865655481 0.0
0.0 0.001783788656832315 0.0
0.0 0.0017837886570790452 0.0
0.0 0.001783788657289063 0.0
0.0 0.0017837886575330507 0.0
0.0 0.0017837886577083083 0.0
0.0 0.001783788657904844 0.0
0.0 0.0017837886580822527 0.0
0.0 0.0017837886582173577 0.0
0.0 0.0017837886583834974 0.0
0.0 0.0017837886584908165 0.0
0.0 0.0017837886586068385 0.0
0.0 0.001783788658714243 0.0
0.0 0.0017837886587741113 0.0
0.0 0.0017837886588644184 0.0
0.0 0.0017837886589005694 0.0
0.0 0.0017837886589395996 0.0
0.0 0.001783788658974212 0.0
0.0 0.0017837886589742308 0.0
0.0 0.0017837886589395964 0.0
0.0 0.001783788658900584 0.0
0.0 0.0017837886588644083 0.0
0.0 0.0017837886587741077 0.0
0.0 0.0017837886587142582 0.0
0.0 0.0017837886586068365 0.0
0.0 0.0017837886584908323 0.0
0.0 0.001783788658383488 0.0
0.0 0.0017837886582173453 0.0
0.0 0.0017837886580822555 0.0
0.0 0.001783788657904847 0.0
0.0 0.001783788657708324 0.0
0.0 0.0017837886575330498 0.0
0.0 0.0017837886572890543 0.0
0.0 0.0017837886570790543 0.0
0.0 0.0017837886568323133 0.0
0.0 0.0017837886565548128 0.0
0.0 0.0017837886563104146 0.0
0.0 0.0017837886559921223 0.0
0.0 0.0017837886557019577 0.0
0.0 0.0017837886553912431 0.0
0.0 0.0017837886550294024 0.0
0.0 0.0017837886547161584 0.0
0.0 0.0017837886543259854 0.0
0.0 0.0017837886539526354 0.0
0.0 0.0017837886535787776 0.0
0.0 0.00178378865313591 0.0
0.0 0.0017837886527463525 0.0
0.0 0.0017837886522933722 0.0
0.0 0.0017837886518298877 0.0
0.0 0.0017837886513945706 0.0
0.0 0.0017837886508748763 0.0
0.0 0.0017837886504017508 0.0
0.0 0.0017837886498913735 0.0
0.0 0.0017837886493387862 0.0
0.0 0.0017837886488329781 0.0
0.0 0.0017837886482504732 0.0
0.0 0.0017837886476809455 0.0
0.0 0.0017837886471183647 0.0
0.0 0.0017837886464819525 0.0
0.0 0.0017837886458929378 0.0
0.0 0.0017837886452601076 0.0
0.0 0.0017837886445905811 0.0
0.0 0.0017837886439661802 0.0
0.0 0.0017837886432656134 0.0
0.0 0.0017837886425732148 0.0
0.0 0.0017837886418994677 0.0
0.0 0.0017837886411371973 0.0
0.0 0.001783788640430538 0.0
0.0 0.0017837886396873618 0.0
0.0 0.0017837886388832101 0.0
0.0 0.0017837886381562391 0.0
0.0 0.0017837886373296525 0.0
0.0 0.0017837886365118666 0.0
0.0 0.0017837886357375114 0.0
0.0 0.0017837886348366428 0.0
0.0 0.0017837886340217593 0.0