# vtk DataFile Version 2.0
data_279
ASCII
DATASET UNSTRUCTURED_GRID
POINTS 804 float
0.0 0.0 0.0
0.1 0.0 0.0
0.1 20.0 0.0
0.0 20.0 0.0
0.0 0.0 -0.1
0.1 0.0 -0.1
0.1 20.0 -0.1
0.0 20.0 -0.1
0.1 0.09999999999992462 0.0
0.1 0.1999999999998517 0.0
0.1 0.2999999999997818 0.0
0.1 0.399999999999712 0.0
0.1 0.4999999999996377 0.0
0.1 0.5999999999995541 0.0
0.1 0.6999999999994495 0.0
0.1 0.7999999999993355 0.0
0.1 0.8999999999992101 0.0
0.1 0.999999999999102 0.0
0.1 1.099999999999006 0.0
0.1 1.199999999998936 0.0
0.1 1.299999999998867 0.0
0.1 1.399999999998797 0.0
0.1 1.499999999998727 0.0
0.1 1.599999999998657 0.0
0.1 1.699999999998587 0.0
0.1 1.799999999998517 0.0
0.1 1.899999999998447 0.0
0.1 1.999999999998378 0.0
0.1 2.099999999998308 0.0
0.1 2.199999999998238 0.0
0.1 2.299999999998168 0.0
0.1 2.399999999998067 0.0
0.1 2.499999999997942 0.0
0.1 2.599999999997706 0.0
0.1 2.699999999997444 0.0
0.1 2.799999999997153 0.0
0.1 2.899999999996861 0.0
0.1 2.999999999996569 0.0
0.1 3.099999999996277 0.0
0.1 3.199999999995984 0.0
0.1 3.299999999995693 0.0
0.1 3.399999999995401 0.0
0.1 3.499999999995108 0.0
0.1 3.599999999994816 0.0
0.1 3.699999999994525 0.0
0.1 3.799999999994232 0.0
0.1 3.89999999999394 0.0
0.1 3.999999999993648 0.0
0.1 4.099999999993356 0.0
0.1 4.199999999993064 0.0
0.1 4.299999999992772 0.0
0.1 4.399999999992479 0.0
0.1 4.499999999992188 0.0
0.1 4.599999999991895 0.0
0.1 4.699999999991603 0.0
0.1 4.799999999991311 0.0
0.1 4.899999999991019 0.0
0.1 4.999999999990727 0.0
0.1 5.099999999990436 0.0
0.1 5.199999999990144 0.0
0.1 5.299999999989851 0.0
0.1 5.399999999989559 0.0
0.1 5.499999999989267 0.0
0.1 5.599999999988975 0.0
0.1 5.699999999988683 0.0
0.1 5.799999999988391 0.0
0.1 5.899999999988099 0.0
0.1 5.999999999987806 0.0
0.1 6.099999999987515 0.0
0.1 6.199999999987222 0.0
0.1 6.299999999986929 0.0
0.1 6.399999999986638 0.0
0.1 6.499999999986345 0.0
0.1 6.599999999986054 0.0
0.1 6.699999999985762 0.0
0.1 6.79999999998547 0.0
0.1 6.899999999985177 0.0
0.1 6.999999999984885 0.0
0.1 7.099999999984593 0.0
0.1 7.199999999984302 0.0
0.1 7.299999999984009 0.0
0.1 7.399999999983717 0.0
0.1 7.499999999983426 0.0
0.1 7.599999999983132 0.0
0.1 7.699999999982841 0.0
0.1 7.799999999982549 0.0
0.1 7.899999999982256 0.0
0.1 7.999999999982034 0.0
0.1 8.099999999981964 0.0
0.1 8.199999999982062 0.0
0.1 8.299999999982214 0.0
0.1 8.399999999982366 0.0
0.1 8.499999999982517 0.0
0.1 8.59999999998267 0.0
0.1 8.699999999982822 0.0
0.1 8.799999999982973 0.0
0.1 8.899999999983125 0.0
0.1 8.999999999983277 0.0
0.1 9.09999999998343 0.0
0.1 9.19999999998358 0.0
0.1 9.299999999983733 0.0
0.1 9.399999999983885 0.0
0.1 9.499999999984038 0.0
0.1 9.599999999984188 0.0
0.1 9.69999999998434 0.0
0.1 9.799999999984493 0.0
0.1 9.899999999984646 0.0
0.1 9.999999999984798 0.0
0.1 10.09999999998495 0.0
0.1 10.1999999999851 0.0
0.1 10.29999999998525 0.0
0.1 10.39999999998541 0.0
0.1 10.49999999998556 0.0
0.1 10.59999999998571 0.0
0.1 10.69999999998586 0.0
0.1 10.79999999998601 0.0
0.1 10.89999999998616 0.0
0.1 10.99999999998632 0.0
0.1 11.09999999998647 0.0
0.1 11.19999999998662 0.0
0.1 11.29999999998677 0.0
0.1 11.39999999998693 0.0
0.1 11.49999999998708 0.0
0.1 11.59999999998723 0.0
0.1 11.69999999998738 0.0
0.1 11.79999999998754 0.0
0.1 11.89999999998769 0.0
0.1 11.99999999998784 0.0
0.1 12.09999999998799 0.0
0.1 12.19999999998814 0.0
0.1 12.2999999999883 0.0
0.1 12.39999999998845 0.0
0.1 12.4999999999886 0.0
0.1 12.59999999998875 0.0
0.1 12.6999999999889 0.0
0.1 12.79999999998905 0.0
0.1 12.89999999998921 0.0
0.1 12.99999999998936 0.0
0.1 13.09999999998951 0.0
0.1 13.19999999998966 0.0
0.1 13.29999999998982 0.0
0.1 13.39999999998997 0.0
0.1 13.49999999999012 0.0
0.1 13.59999999999027 0.0
0.1 13.69999999999042 0.0
0.1 13.79999999999057 0.0
0.1 13.89999999999073 0.0
0.1 13.99999999999088 0.0
0.1 14.09999999999103 0.0
0.1 14.19999999999118 0.0
0.1 14.29999999999134 0.0
0.1 14.39999999999149 0.0
0.1 14.49999999999164 0.0
0.1 14.59999999999179 0.0
0.1 14.69999999999194 0.0
0.1 14.7999999999921 0.0
0.1 14.89999999999225 0.0
0.1 14.9999999999924 0.0
0.1 15.09999999999255 0.0
0.1 15.1999999999927 0.0
0.1 15.29999999999285 0.0
0.1 15.39999999999301 0.0
0.1 15.49999999999316 0.0
0.1 15.59999999999331 0.0
0.1 15.69999999999346 0.0
0.1 15.79999999999362 0.0
0.1 15.89999999999377 0.0
0.1 15.99999999999392 0.0
0.1 16.09999999999407 0.0
0.1 16.19999999999422 0.0
0.1 16.29999999999437 0.0
0.1 16.39999999999453 0.0
0.1 16.49999999999468 0.0
0.1 16.59999999999483 0.0
0.1 16.69999999999498 0.0
0.1 16.79999999999514 0.0
0.1 16.89999999999528 0.0
0.1 16.99999999999544 0.0
0.1 17.09999999999559 0.0
0.1 17.19999999999574 0.0
0.1 17.29999999999589 0.0
0.1 17.39999999999605 0.0
0.1 17.4999999999962 0.0
0.1 17.59999999999635 0.0
0.1 17.6999999999965 0.0
0.1 17.79999999999665 0.0
0.1 17.89999999999681 0.0
0.1 17.99999999999696 0.0
0.1 18.09999999999711 0.0
0.1 18.19999999999726 0.0
0.1 18.29999999999742 0.0
0.1 18.39999999999757 0.0
0.1 18.49999999999772 0.0
0.1 18.59999999999787 0.0
0.1 18.69999999999802 0.0
0.1 18.79999999999818 0.0
0.1 18.89999999999833 0.0
0.1 18.99999999999848 0.0
0.1 19.09999999999863 0.0
0.1 19.19999999999878 0.0
0.1 19.29999999999894 0.0
0.1 19.39999999999909 0.0
0.1 19.49999999999924 0.0
0.1 19.59999999999939 0.0
0.1 19.69999999999955 0.0
0.1 19.7999999999997 0.0
0.1 19.89999999999985 0.0
0.0 19.9 0.0
0.0 19.8 0.0
0.0 19.7 0.0
0.0 19.6 0.0
0.0 19.5 0.0
0.0 19.4 0.0
0.0 19.3 0.0
0.0 19.2 0.0
0.0 19.1 0.0
0.0 19.0 0.0
0.0 18.9 0.0
0.0 18.8 0.0
0.0 18.7 0.0
0.0 18.6 0.0
0.0 18.5 0.0
0.0 18.4 0.0
0.0 18.3 0.0
0.0 18.2 0.0
0.0 18.1 0.0
0.0 18.0 0.0
0.0 17.9 0.0
0.0 17.8 0.0
0.0 17.7 0.0
0.0 17.6 0.0
0.0 17.5 0.0
0.0 17.4 0.0
0.0 17.3 0.0
0.0 17.2 0.0
0.0 17.09999999999999 0.0
0.0 17.0 0.0
0.0 16.9 0.0
0.0 16.8 0.0
0.0 16.7 0.0
0.0 16.59999999999999 0.0
0.0 16.49999999999999 0.0
0.0 16.4 0.0
0.0 16.29999999999999 0.0
0.0 16.2 0.0
0.0 16.09999999999999 0.0
0.0 15.99999999999999 0.0
0.0 15.89999999999999 0.0
0.0 15.79999999999999 0.0
0.0 15.69999999999999 0.0
0.0 15.59999999999999 0.0
0.0 15.49999999999999 0.0
0.0 15.39999999999999 0.0
0.0 15.29999999999999 0.0
0.0 15.19999999999999 0.0
0.0 15.09999999999999 0.0
0.0 14.99999999999999 0.0
0.0 14.89999999999999 0.0
0.0 14.79999999999999 0.0
0.0 14.69999999999999 0.0
0.0 14.59999999999999 0.0
0.0 14.49999999999999 0.0
0.0 14.39999999999999 0.0
0.0 14.29999999999999 0.0
0.0 14.19999999999999 0.0
0.0 14.09999999999999 0.0
0.0 13.99999999999999 0.0
0.0 13.89999999999999 0.0
0.0 13.79999999999999 0.0
0.0 13.69999999999999 0.0
0.0 13.59999999999999 0.0
0.0 13.49999999999999 0.0
0.0 13.39999999999999 0.0
0.0 13.29999999999999 0.0
0.0 13.19999999999999 0.0
0.0 13.09999999999999 0.0
0.0 12.99999999999999 0.0
0.0 12.89999999999999 0.0
0.0 12.79999999999999 0.0
0.0 12.69999999999999 0.0
0.0 12.59999999999999 0.0
0.0 12.49999999999999 0.0
0.0 12.39999999999999 0.0
0.0 12.29999999999999 0.0
0.0 12.19999999999999 0.0
0.0 12.09999999999999 0.0
0.0 11.99999999999999 0.0
0.0 11.89999999999999 0.0
0.0 11.79999999999999 0.0
0.0 11.69999999999999 0.0
0.0 11.59999999999999 0.0
0.0 11.49999999999999 0.0
0.0 11.39999999999999 0.0
0.0 11.29999999999999 0.0
0.0 11.19999999999999 0.0
0.0 11.09999999999999 0.0
0.0 10.99999999999999 0.0
0.0 10.89999999999999 0.0
0.0 10.79999999999999 0.0
0.0 10.69999999999999 0.0
0.0 10.59999999999999 0.0
0.0 10.49999999999999 0.0
0.0 10.39999999999999 0.0
0.0 10.29999999999999 0.0
0.0 10.19999999999999 0.0
0.0 10.09999999999999 0.0
0.0 9.999999999999993 0.0
0.0 9.899999999999993 0.0
0.0 9.799999999999994 0.0
0.0 9.699999999999992 0.0
0.0 9.599999999999993 0.0
0.0 9.499999999999993 0.0
0.0 9.399999999999993 0.0
0.0 9.299999999999995 0.0
0.0 9.199999999999996 0.0
0.0 9.099999999999994 0.0
0.0 8.999999999999995 0.0
0.0 8.899999999999995 0.0
0.0 8.799999999999994 0.0
0.0 8.699999999999994 0.0
0.0 8.599999999999994 0.0
0.0 8.499999999999995 0.0
0.0 8.399999999999995 0.0
0.0 8.299999999999994 0.0
0.0 8.199999999999994 0.0
0.0 8.099999999999994 0.0
0.0 7.999999999999993 0.0
0.0 7.899999999999995 0.0
0.0 7.799999999999995 0.0
0.0 7.699999999999996 0.0
0.0 7.599999999999996 0.0
0.0 7.499999999999996 0.0
0.0 7.399999999999995 0.0
0.0 7.299999999999995 0.0
0.0 7.199999999999996 0.0
0.0 7.099999999999994 0.0
0.0 6.999999999999995 0.0
0.0 6.899999999999995 0.0
0.0 6.799999999999995 0.0
0.0 6.699999999999996 0.0
0.0 6.599999999999994 0.0
0.0 6.499999999999995 0.0
0.0 6.399999999999997 0.0
0.0 6.299999999999997 0.0
0.0 6.199999999999996 0.0
0.0 6.099999999999996 0.0
0.0 5.999999999999996 0.0
0.0 5.899999999999997 0.0
0.0 5.799999999999997 0.0
0.0 5.699999999999996 0.0
0.0 5.599999999999996 0.0
0.0 5.499999999999996 0.0
0.0 5.399999999999995 0.0
0.0 5.299999999999995 0.0
0.0 5.199999999999996 0.0
0.0 5.099999999999996 0.0
0.0 4.999999999999998 0.0
0.0 4.899999999999999 0.0
0.0 4.799999999999997 0.0
0.0 4.699999999999998 0.0
0.0 4.599999999999998 0.0
0.0 4.499999999999996 0.0
0.0 4.399999999999997 0.0
0.0 4.299999999999997 0.0
0.0 4.199999999999998 0.0
0.0 4.099999999999998 0.0
0.0 3.999999999999996 0.0
0.0 3.899999999999999 0.0
0.0 3.799999999999997 0.0
0.0 3.699999999999996 0.0
0.0 3.599999999999998 0.0
0.0 3.5 0.0
0.0 3.399999999999999 0.0
0.0 3.299999999999997 0.0
0.0 3.199999999999999 0.0
0.0 3.099999999999998 0.0
0.0 3.0 0.0
0.0 2.899999999999999 0.0
0.0 2.799999999999997 0.0
0.0 2.699999999999999 0.0
0.0 2.599999999999998 0.0
0.0 2.499999999999996 0.0
0.0 2.399999999999999 0.0
0.0 2.299999999999997 0.0
0.0 2.199999999999999 0.0
0.0 2.100000000000001 0.0
0.0 2.0 0.0
0.0 1.899999999999999 0.0
0.0 1.800000000000001 0.0
0.0 1.699999999999999 0.0
0.0 1.599999999999998 0.0
0.0 1.5 0.0
0.0 1.399999999999999 0.0
0.0 1.299999999999997 0.0
0.0 1.199999999999999 0.0
0.0 1.099999999999998 0.0
0.0 1.0 0.0
0.0 0.8999999999999986 0.0
0.0 0.8000000000000007 0.0
0.0 0.6999999999999993 0.0
0.0 0.6000000000000014 0.0
0.0 0.5 0.0
0.0 0.3999999999999986 0.0
0.0 0.3000000000000007 0.0
0.0 0.1999999999999993 0.0
[...]
POINT_DATA 804
VECTORS displacement double
0.0 0.0 0.0
0.0 0.0 0.0
0.0 -0.0017873588944383903 0.0
0.0 -0.0017873588944384154 0.0
0.0 0.0 0.0
0.0 0.0 0.0
0.0 -0.001787358894438425 0.0
0.0 -0.0017873588944383896 0.0
0.0 4.92751496514241e-05 0.0
0.0 6.263831520055482e-05 0.0
0.0 6.905059754069747e-07 0.0
0.0 -0.00017180433329761903 0.0
0.0 -0.000460816611437118 0.0
0.0 -0.0008196177193892219 0.0
0.0 -0.0011638971978518062 0.0
0.0 -0.001426255173647807 0.0
0.0 -0.0015950985086811253 0.0
0.0 -0.001696570736133809 0.0
0.0 -0.0017534868711465716 0.0
0.0 -0.0017768451879723454 0.0
0.0 -0.0017817378805838283 0.0
0.0 -0.0017847620925313685 0.0
0.0 -0.0017886548033267072 0.0
0.0 -0.0017881936176995464 0.0
0.0 -0.0017859362071751049 0.0
0.0 -0.0017870696217345368 0.0
0.0 -0.0017885648637026251 0.0
0.0 -0.0017871322026679572 0.0
0.0 -0.001786452903927004 0.0
0.0 -0.0017879111300397495 0.0
0.0 -0.0017878203952773016 0.0
0.0 -0.0017866518196472374 0.0
0.0 -0.0017873256160786638 0.0
0.0 -0.0017879412424482263 0.0
0.0 -0.0017870203216728546 0.0
0.0 -0.0017870529503897217 0.0
0.0 -0.0017878160126677284 0.0
0.0 -0.0017872860106958295 0.0
0.0 -0.0017869946851521016 0.0
0.0 -0.001787658154151806 0.0
0.0 -0.001787420767848044 0.0
0.0 -0.0017870266682179017 0.0
0.0 -0.0017875430812282719 0.0
0.0 -0.0017874682790352137 0.0
0.0 -0.0017870789065098636 0.0
0.0 -0.001787478049682324 0.0
0.0 -0.0017874698219387604 0.0
0.0 -0.001787125187246482 0.0
0.0 -0.0017874501442713523 0.0
0.0 -0.0017874493593435898 0.0
0.0 -0.001787161384659835 0.0
0.0 -0.0017874450996215906 0.0
0.0 -0.0017874177936873397 0.0
0.0 -0.001787191917058272 0.0
0.0 -0.0017874512867501735 0.0
0.0 -0.0017873797003986071 0.0
0.0 -0.0017872233451121143 0.0
0.0 -0.0017874588700828712 0.0
0.0 -0.0017873384949670973 0.0
0.0 -0.0017872611311455346 0.0
0.0 -0.0017874587395720547 0.0
0.0 -0.0017872997241470013 0.0
0.0 -0.0017873070471885308 0.0
0.0 -0.0017874431467006819 0.0
0.0 -0.0017872722357776057 0.0
0.0 -0.0017873567214866598 0.0
0.0 -0.0017874086199152037 0.0
0.0 -0.001787266321085768 0.0
0.0 -0.0017873987070435005 0.0
0.0 -0.0017873601382315562 0.0
0.0 -0.0017872882282556927 0.0
0.0 -0.0017874176415556982 0.0
0.0 -0.001787313286587843 0.0
0.0 -0.0017873327892164025 0.0
0.0 -0.001787403025121363 0.0
0.0 -0.0017872896995088903 0.0
0.0 -0.0017873797738252684 0.0
0.0 -0.0017873604895999413 0.0
0.0 -0.0017873037363481485 0.0
0.0 -0.0017874013533997473 0.0
0.0 -0.0017873159723166404 0.0
0.0 -0.0017873468978778452 0.0
0.0 -0.0017873820202480687 0.0
0.0 -0.0017873023040484545 0.0
0.0 -0.0017873858227223298 0.0
0.0 -0.0017873376056045068 0.0
0.0 -0.0017873308326217684 0.0
0.0 -0.001787386071072808 0.0
0.0 -0.001787309585754069 0.0
0.0 -0.001787373234397694 0.0
0.0 -0.0017873483475107394 0.0
0.0 -0.0017873266045694385 0.0
0.0 -0.0017873834366251163 0.0
0.0 -0.001787315995218845 0.0
0.0 -0.0017873674121507723 0.0
0.0 -0.0017873505170791174 0.0
0.0 -0.00178732862534294 0.0
0.0 -0.0017873791946176618 0.0
0.0 -0.0017873194644861768 0.0
0.0 -0.0017873671575338156 0.0
0.0 -0.001787347018754518 0.0
0.0 -0.001787334419129996 0.0
0.0 -0.0017873739245586472 0.0
0.0 -0.001787321477335428 0.0
0.0 -0.0017873699205510853 0.0
0.0 -0.0017873399773335437 0.0
0.0 -0.0017873434918931513 0.0
0.0 -0.001787366091117555 0.0
0.0 -0.0017873250970302412 0.0
0.0 -0.0017873722269046073 0.0
0.0 -0.0017873320186681634 0.0
0.0 -0.0017873550207583102 0.0
0.0 -0.0017873543389942087 0.0
0.0 -0.0017873335979930684 0.0
0.0 -0.0017873696508065617 0.0
0.0 -0.001787327668931103 0.0
0.0 -0.0017873654663302968 0.0
0.0 -0.0017873403147674193 0.0
0.0 -0.0017873477857702248 0.0
0.0 -0.0017873588306468896 0.0
0.0 -0.0017873324463718464 0.0
0.0 -0.001787368034145619 0.0
0.0 -0.00178733083282886 0.0
0.0 -0.0017873622661160851 0.0
0.0 -0.0017873423799690561 0.0
0.0 -0.001787347505392431 0.0
0.0 -0.0017873574513357934 0.0
0.0 -0.0017873348320600246 0.0
0.0 -0.0017873657048711998 0.0
0.0 -0.0017873320984765231 0.0
0.0 -0.0017873628517712464 0.0
0.0 -0.0017873397154284745 0.0
0.0 -0.0017873519810201414 0.0
0.0 -0.0017873519913224392 0.0
0.0 -0.0017873402003296696 0.0
0.0 -0.001787361642695685 0.0
0.0 -0.001787333875933157 0.0
0.0 -0.0017873640246619813 0.0
0.0 -0.0017873354875736326 0.0
0.0 -0.0017873589014520957 0.0
0.0 -0.0017873432639396358 0.0
0.0 -0.0017873495836799149 0.0
0.0 -0.0017873529528745211 0.0
0.0 -0.001787340636766436 0.0
0.0 -0.0017873602498317462 0.0
0.0 -0.0017873356459666271 0.0
0.0 -0.0017873625962734185 0.0
0.0 -0.0017873359966517114 0.0
0.0 -0.0017873597766618 0.0
0.0 -0.001787340861150967 0.0
0.0 -0.0017873534473040673 0.0
0.0 -0.001787348018879452 0.0
0.0 -0.0017873461149233011 0.0
0.0 -0.001787354938600866 0.0
0.0 -0.0017873401126814606 0.0
0.0 -0.0017873596547269483 0.0
0.0 -0.0017873369281616073 0.0
0.0 -0.0017873612099572973 0.0
0.0 -0.0017873369880774073 0.0
0.0 -0.0017873596661619046 0.0
0.0 -0.0017873398148396111 0.0
0.0 -0.0017873558246778243 0.0
0.0 -0.0017873443835221521 0.0
0.0 -0.001787350834974349 0.0
0.0 -0.0017873495108069928 0.0
0.0 -0.001787345836907567 0.0
0.0 -0.0017873541613115515 0.0
0.0 -0.0017873417177248624 0.0
0.0 -0.0017873576226981034 0.0
0.0 -0.001787339003380869 0.0
0.0 -0.0017873595538905036 0.0
0.0 -0.001787337861845109 0.0
0.0 -0.001787359940794296 0.0
0.0 -0.0017873381773497164 0.0
0.0 -0.0017873590026371306 0.0
0.0 -0.0017873396539929182 0.0
0.0 -0.0017873570864052482 0.0
0.0 -0.0017873419169470719 0.0
0.0 -0.001787354574620921 0.0
0.0 -0.0017873445926464 0.0
0.0 -0.001787351818847406 0.0
0.0 -0.0017873473610873288 0.0
0.0 -0.0017873491011809145 0.0
0.0 -0.0017873499816054592 0.0
0.0 -0.00178734661970909 0.0
0.0 -0.0017873522979175867 0.0
0.0 -0.0017873444911500932 0.0
0.0 -0.0017873542295806333 0.0
0.0 -0.0017873427636432987 0.0
0.0 -0.0017873557564198365 0.0
0.0 -0.0017873414338491892 0.0
0.0 -0.0017873569009278984 0.0
0.0 -0.0017873404642457526 0.0
0.0 -0.0017873577118715737 0.0
0.0 -0.0017873397982039077 0.0
0.0 -0.0017873582507918653 0.0
0.0 -0.0017873393717847566 0.0
0.0 -0.0017873585819331802 0.0
0.0 -0.0017873391221386197 0.0
0.0 -0.0017873587654040595 0.0
0.0 -0.0017873389929337574 0.0
0.0 -0.0017873588529886963 0.0
0.0 -0.0017873389374847685 0.0
0.0 -0.0017873588858987935 0.0
0.0 -0.0017873389202920508 0.0
0.0 -0.0017873588937843356 0.0
0.0 -0.0017873389176225453 0.0
0.0 -0.0017873389176225481 0.0
0.0 -0.001787358893784343 0.0
0.0 -0.001787338920292046 0.0
0.0 -0.0017873588858987844 0.0
0.0 -0.0017873389374847592 0.0
0.0 -0.0017873588529886957 0.0
0.0 -0.0017873389929337568 0.0
0.0 -0.0017873587654040422 0.0
0.0 -0.001787339122138616 0.0
0.0 -0.001787358581933177 0.0
0.0 -0.0017873393717847321 0.0
0.0 -0.0017873582507918714 0.0
0.0 -0.0017873397982039203 0.0
0.0 -0.001787357711871581 0.0
0.0 -0.0017873404642457377 0.0
0.0 -0.0017873569009278912 0.0
0.0 -0.0017873414338491764 0.0
0.0 -0.0017873557564198326 0.0
0.0 -0.0017873427636433037 0.0
0.0 -0.0017873542295806526 0.0
0.0 -0.0017873444911500848 0.0
0.0 -0.0017873522979175837 0.0
0.0 -0.001787346619709099 0.0
0.0 -0.0017873499816054533 0.0
0.0 -0.001787349101180911 0.0
0.0 -0.0017873473610873303 0.0
0.0 -0.0017873518188473941 0.0
0.0 -0.0017873445926464 0.0
0.0 -0.0017873545746209315 0.0
0.0 -0.0017873419169470606 0.0
0.0 -0.0017873570864052441 0.0
0.0 -0.001787339653992925 0.0
0.0 -0.0017873590026371265 0.0
0.0 -0.0017873381773497261 0.0
0.0 -0.0017873599407943108 0.0
0.0 -0.0017873378618451265 0.0
0.0 -0.0017873595538905297 0.0
0.0 -0.001787339003380868 0.0
0.0 -0.0017873576226981028 0.0
0.0 -0.0017873417177248615 0.0
0.0 -0.0017873541613115543 0.0
0.0 -0.001787345836907558 0.0
0.0 -0.0017873495108069808 0.0
0.0 -0.0017873508349743692 0.0
0.0 -0.001787344383522147 0.0
0.0 -0.0017873558246778321 0.0
0.0 -0.0017873398148396083 0.0
0.0 -0.0017873596661619076 0.0
0.0 -0.0017873369880774023 0.0
0.0 -0.0017873612099572958 0.0
0.0 -0.0017873369281616058 0.0
0.0 -0.0017873596547269487 0.0
0.0 -0.0017873401126814728 0.0
0.0 -0.0017873549386008681 0.0
0.0 -0.0017873461149233024 0.0
0.0 -0.0017873480188794564 0.0
0.0 -0.0017873534473040447 0.0
0.0 -0.0017873408611509644 0.0
0.0 -0.001787359776661818 0.0
0.0 -0.0017873359966517237 0.0
0.0 -0.0017873625962734245 0.0
0.0 -0.0017873356459666182 0.0
0.0 -0.0017873602498317308 0.0
0.0 -0.0017873406367664446 0.0
0.0 -0.0017873529528745263 0.0
0.0 -0.0017873495836799253 0.0
0.0 -0.0017873432639396274 0.0
0.0 -0.0017873589014521035 0.0
0.0 -0.0017873354875736255 0.0
0.0 -0.0017873640246619676 0.0
0.0 -0.001787333875933165 0.0
0.0 -0.0017873616426956787 0.0
0.0 -0.0017873402003296833 0.0
0.0 -0.0017873519913224345 0.0
0.0 -0.0017873519810201353 0.0
0.0 -0.001787339715428472 0.0
0.0 -0.001787362851771246 0.0
0.0 -0.0017873320984765325 0.0
0.0 -0.0017873657048711963 0.0
0.0 -0.0017873348320600153 0.0
0.0 -0.0017873574513357921 0.0
0.0 -0.0017873475053924368 0.0
0.0 -0.0017873423799690407 0.0
0.0 -0.0017873622661160877 0.0
0.0 -0.0017873308328288458 0.0
0.0 -0.001787368034145619 0.0
0.0 -0.001787332446371849 0.0
0.0 -0.001787358830646896 0.0
0.0 -0.0017873477857702337 0.0
0.0 -0.0017873403147674225 0.0
0.0 -0.0017873654663302947 0.0
0.0 -0.0017873276689311076 0.0
0.0 -0.001787369650806554 0.0
0.0 -0.0017873335979930658 0.0
0.0 -0.0017873543389942115 0.0
0.0 -0.0017873550207583107 0.0
0.0 -0.0017873320186681516 0.0
0.0 -0.0017873722269046229 0.0
0.0 -0.0017873250970302556 0.0
0.0 -0.001787366091117574 0.0
0.0 -0.001787343491893172 0.0
0.0 -0.0017873399773335413 0.0
0.0 -0.0017873699205510783 0.0
0.0 -0.0017873214773354254 0.0
0.0 -0.0017873739245586435 0.0
0.0 -0.0017873344191299977 0.0
0.0 -0.0017873470187545106 0.0
0.0 -0.0017873671575338195 0.0
0.0 -0.0017873194644861688 0.0
0.0 -0.0017873791946176546 0.0
0.0 -0.0017873286253429225 0.0
0.0 -0.0017873505170791137 0.0
0.0 -0.0017873674121507825 0.0
0.0 -0.0017873159952188397 0.0
0.0 -0.0017873834366251126 0.0
0.0 -0.0017873266045694183 0.0
0.0 -0.0017873483475106878 0.0
0.0 -0.001787373234397718 0.0
0.0 -0.0017873095857540665 0.0
0.0 -0.0017873860710728071 0.0
0.0 -0.0017873308326217892 0.0
0.0 -0.0017873376056044997 0.0
0.0 -0.001787385822722345 0.0
0.0 -0.0017873023040484571 0.0
0.0 -0.00178738202024807 0.0
0.0 -0.0017873468978778484 0.0
0.0 -0.0017873159723166335 0.0
0.0 -0.0017874013533997646 0.0
0.0 -0.001787303736348186 0.0
0.0 -0.0017873604895999357 0.0
0.0 -0.0017873797738252855 0.0
0.0 -0.0017872896995088817 0.0
0.0 -0.0017874030251213504 0.0
0.0 -0.0017873327892164125 0.0
0.0 -0.0017873132865878244 0.0
0.0 -0.001787417641555697 0.0
0.0 -0.0017872882282557064 0.0
0.0 -0.0017873601382315386 0.0
0.0 -0.0017873987070435137 0.0
0.0 -0.001787266321085757 0.0
0.0 -0.0017874086199151963 0.0
0.0 -0.001787356721486691 0.0
0.0 -0.0017872722357775853 0.0
0.0 -0.001787443146700672 0.0
0.0 -0.0017873070471885496 0.0
0.0 -0.0017872997241469941 0.0
0.0 -0.0017874587395720642 0.0
0.0 -0.0017872611311455444 0.0
0.0 -0.0017873384949670772 0.0
0.0 -0.0017874588700828838 0.0
0.0 -0.001787223345112117 0.0
0.0 -0.0017873797003985783 0.0
0.0 -0.0017874512867501863 0.0
0.0 -0.0017871919170582827 0.0
0.0 -0.0017874177936873172 0.0
0.0 -0.0017874450996216166 0.0
0.0 -0.0017871613846598352 0.0
0.0 -0.0017874493593435742 0.0
0.0 -0.0017874501442713762 0.0
0.0 -0.001787125187246476 0.0
0.0 -0.0017874698219387292 0.0
0.0 -0.0017874780496823616 0.0
0.0 -0.0017870789065098694 0.0
0.0 -0.0017874682790351972 0.0
0.0 -0.0017875430812283122 0.0
0.0 -0.0017870266682179085 0.0
0.0 -0.001787420767848016 0.0
0.0 -0.001787658154151841 0.0
0.0 -0.001786994685152114 0.0
0.0 -0.0017872860106958124 0.0
0.0 -0.001787816012667731 0.0
0.0 -0.0017870529503897393 0.0
0.0 -0.001787020321672831 0.0
0.0 -0.0017879412424482224 0.0
0.0 -0.001787325616078691 0.0
0.0 -0.001786651819647233 0.0
0.0 -0.001787820395277292 0.0
0.0 -0.001787911130039773 0.0
0.0 -0.0017864529039270205 0.0
0.0 -0.00178713220266794 0.0
0.0 -0.0017885648637026232 0.0
0.0 -0.0017870696217345775 0.0
0.0 -0.001785936207175097 0.0
0.0 -0.001788193617699501 0.0
0.0 -0.001788654803326729 0.0
0.0 -0.0017847620925314186 0.0
0.0 -0.001781737880583855 0.0
0.0 -0.0017768451879724683 0.0
0.0 -0.0017534868711469474 0.0
0.0 -0.0016965707361345098 0.0
0.0 -0.0015950985086821661 0.0
0.0 -0.001426255173649248 0.0
0.0 -0.0011638971978535251 0.0
0.0 -0.000819617719390857 0.0
0.0 -0.0004608166114383314 0.0
0.0 -0.0001718043332982762 0.0
0.0 6.90505975175996e-07 0.0
0.0 6.26383152005381e-05 0.0
0.0 4.927514965145924e-05 0.0
0.0 4.927514965142661e-05 0.0
0.0 6.263831520055718e-05 0.0
0.0 6.905059754095952e-07 0.0
0.0 -0.0001718043332976215 0.0
0.0 -0.0004608166114371159 0.0
0.0 -0.0008196177193892164 0.0
0.0 -0.0011638971978518077 0.0
0.0 -0.0014262551736478094 0.0
0.0 -0.0015950985086811242 0.0
0.0 -0.001696570736133817 0.0
0.0 -0.0017534868711465703 0.0
0.0 -0.001776845187972346 0.0
0.0 -0.0017817378805838283 0.0
0.0 -0.0017847620925313752 0.0
0.0 -0.0017886548033267048 0.0
0.0 -0.0017881936176995252 0.0
0.0 -0.001785936207175115 0.0
0.0 -0.0017870696217345368 0.0
0.0 -0.0017885648637026236 0.0
0.0 -0.0017871322026679565 0.0
0.0 -0.0017864529039270027 0.0
0.0 -0.0017879111300397488 0.0
0.0 -0.0017878203952773084 0.0
0.0 -0.0017866518196472268 0.0
0.0 -0.0017873256160786687 0.0
0.0 -0.0017879412424482279 0.0
0.0 -0.0017870203216728462 0.0
0.0 -0.0017870529503897243 0.0
0.0 -0.0017878160126677215 0.0
0.0 -0.001787286010695832 0.0
0.0 -0.0017869946851520918 0.0
0.0 -0.0017876581541518219 0.0
0.0 -0.001787420767848052 0.0
0.0 -0.0017870266682179156 0.0
0.0 -0.0017875430812282732 0.0
0.0 -0.0017874682790352168 0.0
0.0 -0.001787078906509874 0.0
0.0 -0.0017874780496823367 0.0
0.0 -0.0017874698219387585 0.0
0.0 -0.001787125187246484 0.0
0.0 -0.001787450144271353 0.0
0.0 -0.001787449359343598 0.0
0.0 -0.0017871613846598404 0.0
0.0 -0.001787445099621589 0.0
0.0 -0.0017874177936873274 0.0
0.0 -0.0017871919170582733 0.0
0.0 -0.0017874512867501696 0.0
0.0 -0.0017873797003985972 0.0
0.0 -0.0017872233451121107 0.0
0.0 -0.0017874588700828758 0.0
0.0 -0.0017873384949671025 0.0
0.0 -0.0017872611311455415 0.0
0.0 -0.0017874587395720596 0.0
0.0 -0.0017872997241470128 0.0
0.0 -0.0017873070471885219 0.0
0.0 -0.0017874431467006782 0.0
0.0 -0.0017872722357776133 0.0
0.0 -0.0017873567214866627 0.0
0.0 -0.0017874086199152128 0.0
0.0 -0.0017872663210857706 0.0
0.0 -0.0017873987070435003 0.0
0.0 -0.0017873601382315514 0.0
0.0 -0.0017872882282556775 0.0
0.0 -0.0017874176415556954 0.0
0.0 -0.0017873132865878518 0.0
0.0 -0.001787332789216397 0.0
0.0 -0.0017874030251213574 0.0
0.0 -0.001787289699508883 0.0
0.0 -0.0017873797738252673 0.0
0.0 -0.0017873604895999348 0.0
0.0 -0.0017873037363481646 0.0
0.0 -0.0017874013533997538 0.0
0.0 -0.0017873159723166441 0.0
0.0 -0.0017873468978778341 0.0
0.0 -0.0017873820202480622 0.0
0.0 -0.0017873023040484487 0.0
0.0 -0.0017873858227223309 0.0
0.0 -0.0017873376056045105 0.0
0.0 -0.0017873308326217807 0.0
0.0 -0.0017873860710728058 0.0
0.0 -0.0017873095857540747 0.0
0.0 -0.0017873732343976956 0.0
0.0 -0.0017873483475106975 0.0
0.0 -0.0017873266045694207 0.0
0.0 -0.001787383436625124 0.0
0.0 -0.0017873159952188473 0.0
0.0 -0.001787367412150774 0.0
0.0 -0.0017873505170791111 0.0
0.0 -0.001787328625342924 0.0
0.0 -0.0017873791946176679 0.0
0.0 -0.001787319464486177 0.0
0.0 -0.0017873671575338085 0.0
0.0 -0.001787347018754519 0.0
0.0 -0.0017873344191300068 0.0
0.0 -0.0017873739245586559 0.0
0.0 -0.0017873214773354241 0.0
0.0 -0.001787369920551075 0.0
0.0 -0.0017873399773335452 0.0
0.0 -0.0017873434918931625 0.0
0.0 -0.0017873660911175814 0.0
0.0 -0.0017873250970302538 0.0
0.0 -0.0017873722269046192 0.0
0.0 -0.0017873320186681623 0.0
0.0 -0.0017873550207583157 0.0
0.0 -0.0017873543389942176 0.0
0.0 -0.0017873335979930638 0.0
0.0 -0.001787369650806555 0.0
0.0 -0.0017873276689311123 0.0
0.0 -0.0017873654663302934 0.0
0.0 -0.001787340314767427 0.0
0.0 -0.0017873477857702324 0.0
0.0 -0.001787358830646888 0.0
0.0 -0.0017873324463718388 0.0
0.0 -0.0017873680341456148 0.0
0.0 -0.0017873308328288547 0.0
0.0 -0.0017873622661160893 0.0
0.0 -0.00178734237996904 0.0
0.0 -0.0017873475053924294 0.0
0.0 -0.001787357451335806 0.0
0.0 -0.0017873348320600125 0.0
0.0 -0.0017873657048711987 0.0
0.0 -0.0017873320984765195 0.0
0.0 -0.001787362851771253 0.0
0.0 -0.0017873397154284712 0.0
0.0 -0.0017873519810201236 0.0
0.0 -0.0017873519913224325 0.0
0.0 -0.001787340200329668 0.0
0.0 -0.0017873616426956696 0.0
0.0 -0.0017873338759331599 0.0
0.0 -0.0017873640246619685 0.0
0.0 -0.001787335487573618 0.0
0.0 -0.0017873589014520946 0.0
0.0 -0.0017873432639396358 0.0
0.0 -0.0017873495836799235 0.0
0.0 -0.0017873529528745207 0.0
0.0 -0.0017873406367664407 0.0
0.0 -0.0017873602498317295 0.0
0.0 -0.0017873356459666252 0.0
0.0 -0.0017873625962734109 0.0
0.0 -0.0017873359966517125 0.0
0.0 -0.0017873597766618085 0.0
0.0 -0.0017873408611509675 0.0
0.0 -0.001787353447304056 0.0
0.0 -0.0017873480188794666 0.0
0.0 -0.0017873461149232979 0.0
0.0 -0.0017873549386008681 0.0
0.0 -0.0017873401126814797 0.0
0.0 -0.0017873596547269461 0.0
0.0 -0.0017873369281615988 0.0
0.0 -0.0017873612099573006 0.0
0.0 -0.001787336988077398 0.0
0.0 -0.0017873596661618996 0.0
0.0 -0.0017873398148396207 0.0
0.0 -0.001787355824677836 0.0
0.0 -0.0017873443835221422 0.0
0.0 -0.0017873508349743683 0.0
0.0 -0.0017873495108069984 0.0
0.0 -0.001787345836907556 0.0
0.0 -0.0017873541613115387 0.0
0.0 -0.0017873417177248696 0.0
0.0 -0.001787357622698098 0.0
0.0 -0.0017873390033808648 0.0
0.0 -0.001787359553890532 0.0
0.0 -0.0017873378618451267 0.0
0.0 -0.0017873599407943123 0.0
0.0 -0.0017873381773497268 0.0
0.0 -0.0017873590026371241 0.0
0.0 -0.001787339653992926 0.0
0.0 -0.001787357086405246 0.0
0.0 -0.0017873419169470615 0.0
0.0 -0.001787354574620932 0.0
0.0 -0.0017873445926463896 0.0
0.0 -0.0017873518188473944 0.0
0.0 -0.0017873473610873442 0.0
0.0 -0.0017873491011809227 0.0
0.0 -0.0017873499816054505 0.0
0.0 -0.0017873466197091041 0.0
0.0 -0.0017873522979175755 0.0
0.0 -0.0017873444911500813 0.0
0.0 -0.0017873542295806398 0.0
0.0 -0.0017873427636432976 0.0
0.0 -0.0017873557564198346 0.0
0.0 -0.0017873414338491814 0.0
0.0 -0.0017873569009278845 0.0
0.0 -0.0017873404642457437 0.0
0.0 -0.0017873577118715823 0.0
0.0 -0.001787339798203921 0.0
0.0 -0.0017873582507918699 0.0
0.0 -0.0017873393717847416 0.0
0.0 -0.0017873585819331845 0.0
0.0 -0.0017873391221386167 0.0
0.0 -0.0017873587654040459 0.0
0.0 -0.0017873389929337568 0.0
0.0 -0.0017873588529887074 0.0
0.0 -0.0017873389374847546 0.0
0.0 -0.001787358885898797 0.0
0.0 -0.0017873389202920466 0.0
0.0 -0.0017873588937843468 0.0
0.0 -0.001787338917622546 0.0
0.0 -0.0017873389176225553 0.0
0.0 -0.0017873588937843362 0.0
0.0 -0.0017873389202920466 0.0
0.0 -0.0017873588858987903 0.0
0.0 -0.0017873389374847709 0.0
0.0 -0.0017873588529887005 0.0
0.0 -0.0017873389929337628 0.0
0.0 -0.0017873587654040448 0.0
0.0 -0.0017873391221386156 0.0
0.0 -0.0017873585819331828 0.0
0.0 -0.0017873393717847557 0.0
0.0 -0.001787358250791862 0.0
0.0 -0.0017873397982039226 0.0
0.0 -0.0017873577118715797 0.0
0.0 -0.001787340464245751 0.0
0.0 -0.001787356900927888 0.0
0.0 -0.001787341433849194 0.0
0.0 -0.0017873557564198326 0.0
0.0 -0.001787342763643291 0.0
0.0 -0.0017873542295806328 0.0
0.0 -0.0017873444911500975 0.0
0.0 -0.0017873522979175841 0.0
0.0 -0.001787346619709089 0.0
0.0 -0.001787349981605451 0.0
0.0 -0.00178734910118092 0.0
0.0 -0.0017873473610873314 0.0
0.0 -0.0017873518188474171 0.0
0.0 -0.0017873445926464043 0.0
0.0 -0.0017873545746209243 0.0
0.0 -0.0017873419169470777 0.0
0.0 -0.0017873570864052604 0.0
0.0 -0.0017873396539929225 0.0
0.0 -0.0017873590026371278 0.0
0.0 -0.0017873381773497272 0.0
0.0 -0.0017873599407942989 0.0
0.0 -0.001787337861845116 0.0
0.0 -0.0017873595538905173 0.0
0.0 -0.001787339003380866 0.0
0.0 -0.0017873576226981062 0.0
0.0 -0.001787341717724885 0.0
0.0 -0.0017873541613115562 0.0
0.0 -0.0017873458369075635 0.0
0.0 -0.0017873495108069776 0.0
0.0 -0.0017873508349743532 0.0
0.0 -0.0017873443835221526 0.0
0.0 -0.0017873558246778202 0.0