# vtk DataFile Version 2.0
data_891
ASCII
DATASET UNSTRUCTURED_GRID
POINTS 804 float
0.0 0.0 0.0
0.1 0.0 0.0
0.1 20.0 0.0
0.0 20.0 0.0
0.0 0.0 -0.1
0.1 0.0 -0.1
0.1 20.0 -0.1
0.0 20.0 -0.1
0.1 0.09999999999992462 0.0
0.1 0.1999999999998517 0.0
0.1 0.2999999999997818 0.0
0.1 0.399999999999712 0.0
0.1 0.4999999999996377 0.0
0.1 0.5999999999995541 0.0
0.1 0.6999999999994495 0.0
0.1 0.7999999999993355 0.0
0.1 0.8999999999992101 0.0
0.1 0.999999999999102 0.0
0.1 1.099999999999006 0.0
0.1 1.199999999998936 0.0
0.1 1.299999999998867 0.0
0.1 1.399999999998797 0.0
0.1 1.499999999998727 0.0
0.1 1.599999999998657 0.0
0.1 1.699999999998587 0.0
0.1 1.799999999998517 0.0
0.1 1.899999999998447 0.0
0.1 1.999999999998378 0.0
0.1 2.099999999998308 0.0
0.1 2.199999999998238 0.0
0.1 2.299999999998168 0.0
0.1 2.399999999998067 0.0
0.1 2.499999999997942 0.0
0.1 2.599999999997706 0.0
0.1 2.699999999997444 0.0
0.1 2.799999999997153 0.0
0.1 2.899999999996861 0.0
0.1 2.999999999996569 0.0
0.1 3.099999999996277 0.0
0.1 3.199999999995984 0.0
0.1 3.299999999995693 0.0
0.1 3.399999999995401 0.0
0.1 3.499999999995108 0.0
0.1 3.599999999994816 0.0
0.1 3.699999999994525 0.0
0.1 3.799999999994232 0.0
0.1 3.89999999999394 0.0
0.1 3.999999999993648 0.0
0.1 4.099999999993356 0.0
0.1 4.199999999993064 0.0
0.1 4.299999999992772 0.0
0.1 4.399999999992479 0.0
0.1 4.499999999992188 0.0
0.1 4.599999999991895 0.0
0.1 4.699999999991603 0.0
0.1 4.799999999991311 0.0
0.1 4.899999999991019 0.0
0.1 4.999999999990727 0.0
0.1 5.099999999990436 0.0
0.1 5.199999999990144 0.0
0.1 5.299999999989851 0.0
0.1 5.399999999989559 0.0
0.1 5.499999999989267 0.0
0.1 5.599999999988975 0.0
0.1 5.699999999988683 0.0
0.1 5.799999999988391 0.0
0.1 5.899999999988099 0.0
0.1 5.999999999987806 0.0
0.1 6.099999999987515 0.0
0.1 6.199999999987222 0.0
0.1 6.299999999986929 0.0
0.1 6.399999999986638 0.0
0.1 6.499999999986345 0.0
0.1 6.599999999986054 0.0
0.1 6.699999999985762 0.0
0.1 6.79999999998547 0.0
0.1 6.899999999985177 0.0
0.1 6.999999999984885 0.0
0.1 7.099999999984593 0.0
0.1 7.199999999984302 0.0
0.1 7.299999999984009 0.0
0.1 7.399999999983717 0.0
0.1 7.499999999983426 0.0
0.1 7.599999999983132 0.0
0.1 7.699999999982841 0.0
0.1 7.799999999982549 0.0
0.1 7.899999999982256 0.0
0.1 7.999999999982034 0.0
0.1 8.099999999981964 0.0
0.1 8.199999999982062 0.0
0.1 8.299999999982214 0.0
0.1 8.399999999982366 0.0
0.1 8.499999999982517 0.0
0.1 8.59999999998267 0.0
0.1 8.699999999982822 0.0
0.1 8.799999999982973 0.0
0.1 8.899999999983125 0.0
0.1 8.999999999983277 0.0
0.1 9.09999999998343 0.0
0.1 9.19999999998358 0.0
0.1 9.299999999983733 0.0
0.1 9.399999999983885 0.0
0.1 9.499999999984038 0.0
0.1 9.599999999984188 0.0
0.1 9.69999999998434 0.0
0.1 9.799999999984493 0.0
0.1 9.899999999984646 0.0
0.1 9.999999999984798 0.0
0.1 10.09999999998495 0.0
0.1 10.1999999999851 0.0
0.1 10.29999999998525 0.0
0.1 10.39999999998541 0.0
0.1 10.49999999998556 0.0
0.1 10.59999999998571 0.0
0.1 10.69999999998586 0.0
0.1 10.79999999998601 0.0
0.1 10.89999999998616 0.0
0.1 10.99999999998632 0.0
0.1 11.09999999998647 0.0
0.1 11.19999999998662 0.0
0.1 11.29999999998677 0.0
0.1 11.39999999998693 0.0
0.1 11.49999999998708 0.0
0.1 11.59999999998723 0.0
0.1 11.69999999998738 0.0
0.1 11.79999999998754 0.0
0.1 11.89999999998769 0.0
0.1 11.99999999998784 0.0
0.1 12.09999999998799 0.0
0.1 12.19999999998814 0.0
0.1 12.2999999999883 0.0
0.1 12.39999999998845 0.0
0.1 12.4999999999886 0.0
0.1 12.59999999998875 0.0
0.1 12.6999999999889 0.0
0.1 12.79999999998905 0.0
0.1 12.89999999998921 0.0
0.1 12.99999999998936 0.0
0.1 13.09999999998951 0.0
0.1 13.19999999998966 0.0
0.1 13.29999999998982 0.0
0.1 13.39999999998997 0.0
0.1 13.49999999999012 0.0
0.1 13.59999999999027 0.0
0.1 13.69999999999042 0.0
0.1 13.79999999999057 0.0
0.1 13.89999999999073 0.0
0.1 13.99999999999088 0.0
0.1 14.09999999999103 0.0
0.1 14.19999999999118 0.0
0.1 14.29999999999134 0.0
0.1 14.39999999999149 0.0
0.1 14.49999999999164 0.0
0.1 14.59999999999179 0.0
0.1 14.69999999999194 0.0
0.1 14.7999999999921 0.0
0.1 14.89999999999225 0.0
0.1 14.9999999999924 0.0
0.1 15.09999999999255 0.0
0.1 15.1999999999927 0.0
0.1 15.29999999999285 0.0
0.1 15.39999999999301 0.0
0.1 15.49999999999316 0.0
0.1 15.59999999999331 0.0
0.1 15.69999999999346 0.0
0.1 15.79999999999362 0.0
0.1 15.89999999999377 0.0
0.1 15.99999999999392 0.0
0.1 16.09999999999407 0.0
0.1 16.19999999999422 0.0
0.1 16.29999999999437 0.0
0.1 16.39999999999453 0.0
0.1 16.49999999999468 0.0
0.1 16.59999999999483 0.0
0.1 16.69999999999498 0.0
0.1 16.79999999999514 0.0
0.1 16.89999999999528 0.0
0.1 16.99999999999544 0.0
0.1 17.09999999999559 0.0
0.1 17.19999999999574 0.0
0.1 17.29999999999589 0.0
0.1 17.39999999999605 0.0
0.1 17.4999999999962 0.0
0.1 17.59999999999635 0.0
0.1 17.6999999999965 0.0
0.1 17.79999999999665 0.0
0.1 17.89999999999681 0.0
0.1 17.99999999999696 0.0
0.1 18.09999999999711 0.0
0.1 18.19999999999726 0.0
0.1 18.29999999999742 0.0
0.1 18.39999999999757 0.0
0.1 18.49999999999772 0.0
0.1 18.59999999999787 0.0
0.1 18.69999999999802 0.0
0.1 18.79999999999818 0.0
0.1 18.89999999999833 0.0
0.1 18.99999999999848 0.0
0.1 19.09999999999863 0.0
0.1 19.19999999999878 0.0
0.1 19.29999999999894 0.0
0.1 19.39999999999909 0.0
0.1 19.49999999999924 0.0
0.1 19.59999999999939 0.0
0.1 19.69999999999955 0.0
0.1 19.7999999999997 0.0
0.1 19.89999999999985 0.0
0.0 19.9 0.0
0.0 19.8 0.0
0.0 19.7 0.0
0.0 19.6 0.0
0.0 19.5 0.0
0.0 19.4 0.0
0.0 19.3 0.0
0.0 19.2 0.0
0.0 19.1 0.0
0.0 19.0 0.0
0.0 18.9 0.0
0.0 18.8 0.0
0.0 18.7 0.0
0.0 18.6 0.0
0.0 18.5 0.0
0.0 18.4 0.0
0.0 18.3 0.0
0.0 18.2 0.0
0.0 18.1 0.0
0.0 18.0 0.0
0.0 17.9 0.0
0.0 17.8 0.0
0.0 17.7 0.0
0.0 17.6 0.0
0.0 17.5 0.0
0.0 17.4 0.0
0.0 17.3 0.0
0.0 17.2 0.0
0.0 17.09999999999999 0.0
0.0 17.0 0.0
0.0 16.9 0.0
0.0 16.8 0.0
0.0 16.7 0.0
0.0 16.59999999999999 0.0
0.0 16.49999999999999 0.0
0.0 16.4 0.0
0.0 16.29999999999999 0.0
0.0 16.2 0.0
0.0 16.09999999999999 0.0
0.0 15.99999999999999 0.0
0.0 15.89999999999999 0.0
0.0 15.79999999999999 0.0
0.0 15.69999999999999 0.0
0.0 15.59999999999999 0.0
0.0 15.49999999999999 0.0
0.0 15.39999999999999 0.0
0.0 15.29999999999999 0.0
0.0 15.19999999999999 0.0
0.0 15.09999999999999 0.0
0.0 14.99999999999999 0.0
0.0 14.89999999999999 0.0
0.0 14.79999999999999 0.0
0.0 14.69999999999999 0.0
0.0 14.59999999999999 0.0
0.0 14.49999999999999 0.0
0.0 14.39999999999999 0.0
0.0 14.29999999999999 0.0
0.0 14.19999999999999 0.0
0.0 14.09999999999999 0.0
0.0 13.99999999999999 0.0
0.0 13.89999999999999 0.0
0.0 13.79999999999999 0.0
0.0 13.69999999999999 0.0
0.0 13.59999999999999 0.0
0.0 13.49999999999999 0.0
0.0 13.39999999999999 0.0
0.0 13.29999999999999 0.0
0.0 13.19999999999999 0.0
0.0 13.09999999999999 0.0
0.0 12.99999999999999 0.0
0.0 12.89999999999999 0.0
0.0 12.79999999999999 0.0
0.0 12.69999999999999 0.0
0.0 12.59999999999999 0.0
0.0 12.49999999999999 0.0
0.0 12.39999999999999 0.0
0.0 12.29999999999999 0.0
0.0 12.19999999999999 0.0
0.0 12.09999999999999 0.0
0.0 11.99999999999999 0.0
0.0 11.89999999999999 0.0
0.0 11.79999999999999 0.0
0.0 11.69999999999999 0.0
0.0 11.59999999999999 0.0
0.0 11.49999999999999 0.0
0.0 11.39999999999999 0.0
0.0 11.29999999999999 0.0
0.0 11.19999999999999 0.0
0.0 11.09999999999999 0.0
0.0 10.99999999999999 0.0
0.0 10.89999999999999 0.0
0.0 10.79999999999999 0.0
0.0 10.69999999999999 0.0
0.0 10.59999999999999 0.0
0.0 10.49999999999999 0.0
0.0 10.39999999999999 0.0
0.0 10.29999999999999 0.0
0.0 10.19999999999999 0.0
0.0 10.09999999999999 0.0
0.0 9.999999999999993 0.0
0.0 9.899999999999993 0.0
0.0 9.799999999999994 0.0
0.0 9.699999999999992 0.0
0.0 9.599999999999993 0.0
0.0 9.499999999999993 0.0
0.0 9.399999999999993 0.0
0.0 9.299999999999995 0.0
0.0 9.199999999999996 0.0
0.0 9.099999999999994 0.0
0.0 8.999999999999995 0.0
0.0 8.899999999999995 0.0
0.0 8.799999999999994 0.0
0.0 8.699999999999994 0.0
0.0 8.599999999999994 0.0
0.0 8.499999999999995 0.0
0.0 8.399999999999995 0.0
0.0 8.299999999999994 0.0
0.0 8.199999999999994 0.0
0.0 8.099999999999994 0.0
0.0 7.999999999999993 0.0
0.0 7.899999999999995 0.0
0.0 7.799999999999995 0.0
0.0 7.699999999999996 0.0
0.0 7.599999999999996 0.0
0.0 7.499999999999996 0.0
0.0 7.399999999999995 0.0
0.0 7.299999999999995 0.0
0.0 7.199999999999996 0.0
0.0 7.099999999999994 0.0
0.0 6.999999999999995 0.0
0.0 6.899999999999995 0.0
0.0 6.799999999999995 0.0
0.0 6.699999999999996 0.0
0.0 6.599999999999994 0.0
0.0 6.499999999999995 0.0
0.0 6.399999999999997 0.0
0.0 6.299999999999997 0.0
0.0 6.199999999999996 0.0
0.0 6.099999999999996 0.0
0.0 5.999999999999996 0.0
0.0 5.899999999999997 0.0
0.0 5.799999999999997 0.0
0.0 5.699999999999996 0.0
0.0 5.599999999999996 0.0
0.0 5.499999999999996 0.0
0.0 5.399999999999995 0.0
0.0 5.299999999999995 0.0
0.0 5.199999999999996 0.0
0.0 5.099999999999996 0.0
0.0 4.999999999999998 0.0
0.0 4.899999999999999 0.0
0.0 4.799999999999997 0.0
0.0 4.699999999999998 0.0
0.0 4.599999999999998 0.0
0.0 4.499999999999996 0.0
0.0 4.399999999999997 0.0
0.0 4.299999999999997 0.0
0.0 4.199999999999998 0.0
0.0 4.099999999999998 0.0
0.0 3.999999999999996 0.0
0.0 3.899999999999999 0.0
0.0 3.799999999999997 0.0
0.0 3.699999999999996 0.0
0.0 3.599999999999998 0.0
0.0 3.5 0.0
0.0 3.399999999999999 0.0
0.0 3.299999999999997 0.0
0.0 3.199999999999999 0.0
0.0 3.099999999999998 0.0
0.0 3.0 0.0
0.0 2.899999999999999 0.0
0.0 2.799999999999997 0.0
0.0 2.699999999999999 0.0
0.0 2.599999999999998 0.0
0.0 2.499999999999996 0.0
0.0 2.399999999999999 0.0
0.0 2.299999999999997 0.0
0.0 2.199999999999999 0.0
0.0 2.100000000000001 0.0
0.0 2.0 0.0
0.0 1.899999999999999 0.0
0.0 1.800000000000001 0.0
0.0 1.699999999999999 0.0
0.0 1.599999999999998 0.0
0.0 1.5 0.0
0.0 1.399999999999999 0.0
0.0 1.299999999999997 0.0
0.0 1.199999999999999 0.0
0.0 1.099999999999998 0.0
0.0 1.0 0.0
0.0 0.8999999999999986 0.0
0.0 0.8000000000000007 0.0
0.0 0.6999999999999993 0.0
0.0 0.6000000000000014 0.0
0.0 0.5 0.0
0.0 0.3999999999999986 0.0
0.0 0.3000000000000007 0.0
0.0 0.1999999999999993 0.0
[...]
POINT_DATA 804
VECTORS displacement double
0.0 0.0 0.0
0.0 0.0 0.0
0.0 0.0017840269637166145 0.0
0.0 0.0017840269637166054 0.0
0.0 0.0 0.0
0.0 0.0 0.0
0.0 0.0017840269637166074 0.0
0.0 0.0017840269637166123 0.0
0.0 1.059406361044052e-09 0.0
0.0 -1.244419619219861e-10 0.0
0.0 -1.0426445186210886e-09 0.0
0.0 3.416189994532303e-10 0.0
0.0 1.206002830939203e-09 0.0
0.0 -3.6303533379314123e-10 0.0
0.0 -1.1839784502621805e-09 0.0
0.0 6.568314706870772e-10 0.0
0.0 1.5692757720178423e-09 0.0
0.0 -5.445527919145957e-10 0.0
0.0 -1.6341884751785985e-09 0.0
0.0 8.544363740979384e-10 0.0
0.0 2.3696965838598215e-09 0.0
0.0 -4.914641438501251e-10 0.0
0.0 -2.6822753684166934e-09 0.0
0.0 5.999790571149882e-10 0.0
0.0 3.940577586847671e-09 0.0
0.0 3.985945394985803e-10 0.0
0.0 -4.626118534796903e-09 0.0
0.0 -1.1336919980342382e-09 0.0
0.0 6.349157184811342e-09 0.0
0.0 3.7608747194396745e-09 0.0
0.0 -6.893681089835891e-09 0.0
0.0 -6.712631847116355e-09 0.0
0.0 7.629279291639199e-09 0.0
0.0 1.251943006914518e-08 0.0
0.0 -4.911905338015868e-09 0.0
0.0 -1.864498628018003e-08 0.0
0.0 -9.684483835339678e-10 0.0
0.0 2.6099256712752496e-08 0.0
0.0 1.5387982844682864e-08 0.0
0.0 -2.7738193250099738e-08 0.0
0.0 -3.7198950916872136e-08 0.0
0.0 1.7735627058579698e-08 0.0
0.0 6.599575045346141e-08 0.0
0.0 1.9818528222624752e-08 0.0
0.0 -8.23171301652108e-08 0.0
0.0 -9.10171299234634e-08 0.0
0.0 5.2197307029213726e-08 0.0
0.0 1.829788065480047e-07 0.0
0.0 8.1463241949112e-08 0.0
0.0 -2.092802727615486e-07 0.0
0.0 -3.315189791089062e-07 0.0
0.0 -1.8314329443913739e-09 0.0
0.0 5.396534391348384e-07 0.0
0.0 6.121347252344719e-07 0.0
0.0 -1.868438301883027e-07 0.0
0.0 -1.2883983012416556e-06 0.0
0.0 -1.3558377660865869e-06 0.0
0.0 4.665398248696558e-07 0.0
0.0 3.2100711436714485e-06 0.0
0.0 4.052936202126302e-06 0.0
0.0 2.851437017046819e-07 0.0
0.0 -7.524329078373527e-06 0.0
0.0 -1.3065135881633983e-05 0.0
0.0 -4.3293353433379375e-06 0.0
0.0 3.334029916228582e-05 0.0
0.0 0.00011235371840245342 0.0
0.0 0.00023827356772721604 0.0
0.0 0.0004074671896788423 0.0
0.0 0.0006078325503904179 0.0
0.0 0.0008220550373569538 0.0
0.0 0.0010319522591077078 0.0
0.0 0.0012223395948572477 0.0
0.0 0.0013833664971151965 0.0
0.0 0.0015110458069522046 0.0
0.0 0.0016063437989172818 0.0
0.0 0.0016735126717548662 0.0
0.0 0.001718330578574323 0.0
0.0 0.0017466950971136064 0.0
0.0 0.0017637475815033856 0.0
0.0 0.001773496836278944 0.0
0.0 0.0017788015751186183 0.0
0.0 0.001781549918348649 0.0
0.0 0.0017829059398878125 0.0
0.0 0.0017835430122620753 0.0
0.0 0.0017838278857333124 0.0
0.0 0.0017839490324234395 0.0
0.0 0.001783997962379816 0.0
0.0 0.0017840167031192792 0.0
0.0 0.0017840234966269508 0.0
0.0 0.0017840258145734736 0.0
0.0 0.0017840265583968177 0.0
0.0 0.0017840267848511144 0.0
0.0 0.0017840268459430758 0.0
0.0 0.0017840268620852046 0.0
0.0 0.0017840268695921916 0.0
0.0 0.0017840268703649285 0.0
0.0 0.001784026871299123 0.0
0.0 0.0017840268750769787 0.0
0.0 0.0017840268753640575 0.0
0.0 0.001784026876301475 0.0
0.0 0.0017840268797784664 0.0
0.0 0.0017840268801151576 0.0
0.0 0.0017840268811940565 0.0
0.0 0.001784026884365148 0.0
0.0 0.0017840268847254441 0.0
0.0 0.0017840268859477019 0.0
0.0 0.0017840268888310326 0.0
0.0 0.0017840268891986717 0.0
0.0 0.0017840268905583193 0.0
0.0 0.0017840268931757317 0.0
0.0 0.0017840268935329316 0.0
0.0 0.0017840268950341158 0.0
0.0 0.0017840268973887852 0.0
0.0 0.0017840268977319205 0.0
0.0 0.0017840268993848036 0.0
0.0 0.0017840269014484879 0.0
0.0 0.001784026901820429 0.0
0.0 0.001784026903592532 0.0
0.0 0.00178402690535947 0.0
0.0 0.001784026905807208 0.0
0.0 0.0017840269076399 0.0
0.0 0.001784026909141907 0.0
0.0 0.0017840269096738258 0.0
0.0 0.0017840269115421458 0.0
0.0 0.0017840269127831607 0.0
0.0 0.0017840269134305829 0.0
0.0 0.0017840269152931342 0.0
0.0 0.0017840269162817904 0.0
0.0 0.0017840269170882992 0.0
0.0 0.001784026918876399 0.0
0.0 0.0017840269196505022 0.0
0.0 0.0017840269206486376 0.0
0.0 0.0017840269222709152 0.0
0.0 0.0017840269229237485 0.0
0.0 0.0017840269240775542 0.0
0.0 0.0017840269254962694 0.0
0.0 0.0017840269261019015 0.0
0.0 0.0017840269273607047 0.0
0.0 0.0017840269285690565 0.0
0.0 0.0017840269291752072 0.0
0.0 0.0017840269305008664 0.0
0.0 0.0017840269314869093 0.0
0.0 0.0017840269321509079 0.0
0.0 0.0017840269334879635 0.0
0.0 0.0017840269342535799 0.0
0.0 0.0017840269350402563 0.0
0.0 0.0017840269362968276 0.0
0.0 0.0017840269368949477 0.0
0.0 0.0017840269378348768 0.0
0.0 0.0017840269389071727 0.0
0.0 0.001784026939455064 0.0
0.0 0.0017840269404863739 0.0
0.0 0.001784026941349026 0.0
0.0 0.0017840269419343452 0.0
0.0 0.0017840269429694954 0.0
0.0 0.0017840269436534483 0.0
0.0 0.0017840269443160557 0.0
0.0 0.0017840269452775253 0.0
0.0 0.0017840269458446257 0.0
0.0 0.0017840269465732607 0.0
0.0 0.0017840269474279312 0.0
0.0 0.0017840269479167449 0.0
0.0 0.0017840269487078234 0.0
0.0 0.0017840269494131943 0.0
0.0 0.0017840269498854212 0.0
0.0 0.0017840269507034706 0.0
0.0 0.001784026951238201 0.0
0.0 0.001784026951764192 0.0
0.0 0.0017840269525337838 0.0
0.0 0.001784026952925844 0.0
0.0 0.0017840269535516764 0.0
0.0 0.0017840269541708905 0.0
0.0 0.0017840269545236986 0.0
0.0 0.0017840269552030397 0.0
0.0 0.0017840269556332515 0.0
0.0 0.001784026956050596 0.0
0.0 0.001784026956671117 0.0
0.0 0.0017840269569718954 0.0
0.0 0.0017840269574786647 0.0
0.0 0.0017840269579457411 0.0
0.0 0.0017840269582297377 0.0
0.0 0.0017840269587545913 0.0
0.0 0.0017840269590633346 0.0
0.0 0.001784026959405212 0.0
0.0 0.0017840269598455776 0.0
0.0 0.0017840269600734602 0.0
0.0 0.0017840269604566157 0.0
0.0 0.0017840269607664425 0.0
0.0 0.0017840269609921443 0.0
0.0 0.0017840269613486708 0.0
0.0 0.0017840269615516185 0.0
0.0 0.0017840269618036664 0.0
0.0 0.001784026962071575 0.0
0.0 0.0017840269622304498 0.0
0.0 0.0017840269624739508 0.0
0.0 0.0017840269626490306 0.0
0.0 0.0017840269627977898 0.0
0.0 0.0017840269629913487 0.0
0.0 0.0017840269630998839 0.0
0.0 0.0017840269632392208 0.0
0.0 0.0017840269633578078 0.0
0.0 0.001784026963435694 0.0
0.0 0.0017840269635349688 0.0
0.0 0.0017840269635930703 0.0
0.0 0.0017840269636438335 0.0
0.0 0.0017840269636878292 0.0
0.0 0.001784026963702231 0.0
0.0 0.0017840269637022345 0.0
0.0 0.0017840269636878285 0.0
0.0 0.0017840269636438487 0.0
0.0 0.0017840269635930582 0.0
0.0 0.0017840269635349686 0.0
0.0 0.001784026963435699 0.0
0.0 0.001784026963357803 0.0
0.0 0.0017840269632392208 0.0
0.0 0.001784026963099879 0.0
0.0 0.001784026962991354 0.0
0.0 0.0017840269627978065 0.0
0.0 0.0017840269626490327 0.0
0.0 0.0017840269624739263 0.0
0.0 0.001784026962230468 0.0
0.0 0.001784026962071575 0.0
0.0 0.0017840269618036493 0.0
0.0 0.0017840269615516159 0.0
0.0 0.001784026961348672 0.0
0.0 0.001784026960992136 0.0
0.0 0.0017840269607664566 0.0
0.0 0.0017840269604566094 0.0
0.0 0.0017840269600734398 0.0
0.0 0.0017840269598455825 0.0
0.0 0.001784026959405212 0.0
0.0 0.0017840269590633367 0.0
0.0 0.0017840269587545883 0.0
0.0 0.001784026958229748 0.0
0.0 0.001784026957945756 0.0
0.0 0.0017840269574786935 0.0
0.0 0.001784026956971892 0.0
0.0 0.001784026956671119 0.0
0.0 0.0017840269560505993 0.0
0.0 0.0017840269556332544 0.0
0.0 0.0017840269552030464 0.0
0.0 0.0017840269545236955 0.0
0.0 0.001784026954170888 0.0
0.0 0.0017840269535516616 0.0
0.0 0.0017840269529258363 0.0
0.0 0.0017840269525337727 0.0
0.0 0.00178402695176419 0.0
0.0 0.001784026951238205 0.0
0.0 0.0017840269507034777 0.0
0.0 0.0017840269498854225 0.0
0.0 0.0017840269494131906 0.0
0.0 0.0017840269487078278 0.0
0.0 0.0017840269479167563 0.0
0.0 0.0017840269474279273 0.0
0.0 0.0017840269465732661 0.0
0.0 0.0017840269458446333 0.0
0.0 0.0017840269452775214 0.0
0.0 0.0017840269443160509 0.0
0.0 0.00178402694365345 0.0
0.0 0.0017840269429694887 0.0
0.0 0.001784026941934327 0.0
0.0 0.0017840269413490278 0.0
0.0 0.0017840269404863908 0.0
0.0 0.0017840269394550805 0.0
0.0 0.0017840269389071788 0.0
0.0 0.0017840269378348907 0.0
0.0 0.001784026936894945 0.0
0.0 0.0017840269362968313 0.0
0.0 0.0017840269350402331 0.0
0.0 0.0017840269342535861 0.0
0.0 0.0017840269334879594 0.0
0.0 0.001784026932150907 0.0
0.0 0.001784026931486913 0.0
0.0 0.001784026930500851 0.0
0.0 0.0017840269291752046 0.0
0.0 0.0017840269285690359 0.0
0.0 0.0017840269273607 0.0
0.0 0.0017840269261019024 0.0
0.0 0.001784026925496271 0.0
0.0 0.001784026924077546 0.0
0.0 0.0017840269229237441 0.0
0.0 0.001784026922270925 0.0
0.0 0.0017840269206486395 0.0
0.0 0.0017840269196505026 0.0
0.0 0.0017840269188763957 0.0
0.0 0.0017840269170883132 0.0
0.0 0.0017840269162817902 0.0
0.0 0.0017840269152931479 0.0
0.0 0.0017840269134305887 0.0
0.0 0.0017840269127831555 0.0
0.0 0.0017840269115421447 0.0
0.0 0.001784026909673823 0.0
0.0 0.0017840269091419032 0.0
0.0 0.0017840269076398877 0.0
0.0 0.001784026905807205 0.0
0.0 0.0017840269053594675 0.0
0.0 0.0017840269035925144 0.0
0.0 0.001784026901820426 0.0
0.0 0.0017840269014484885 0.0
0.0 0.0017840268993847964 0.0
0.0 0.001784026897731916 0.0
0.0 0.0017840268973887752 0.0
0.0 0.0017840268950341028 0.0
0.0 0.0017840268935329392 0.0
0.0 0.0017840268931757232 0.0
0.0 0.0017840268905583187 0.0
0.0 0.0017840268891986465 0.0
0.0 0.0017840268888310283 0.0
0.0 0.0017840268859476989 0.0
0.0 0.0017840268847254487 0.0
0.0 0.0017840268843651377 0.0
0.0 0.001784026881194051 0.0
0.0 0.0017840268801151528 0.0
0.0 0.001784026879778479 0.0
0.0 0.0017840268763014832 0.0
0.0 0.0017840268753640648 0.0
0.0 0.0017840268750769735 0.0
0.0 0.00178402687129913 0.0
0.0 0.001784026870364924 0.0
0.0 0.001784026869592185 0.0
0.0 0.0017840268620851957 0.0
0.0 0.001784026845943075 0.0
0.0 0.0017840267848511112 0.0
0.0 0.0017840265583967964 0.0
0.0 0.0017840258145734842 0.0
0.0 0.001784023496626932 0.0
0.0 0.0017840167031192749 0.0
0.0 0.0017839979623798308 0.0
0.0 0.0017839490324234569 0.0
0.0 0.0017838278857333413 0.0
0.0 0.0017835430122621519 0.0
0.0 0.0017829059398879476 0.0
0.0 0.0017815499183489465 0.0
0.0 0.001778801575119223 0.0
0.0 0.0017734968362800626 0.0
0.0 0.0017637475815053608 0.0
0.0 0.0017466950971169466 0.0
0.0 0.0017183305785796119 0.0
0.0 0.0016735126717628659 0.0
0.0 0.001606343798928735 0.0
0.0 0.001511045806967685 0.0
0.0 0.0013833664971349448 0.0
0.0 0.0012223395948808711 0.0
0.0 0.0010319522591341525 0.0
0.0 0.0008220550373844098 0.0
0.0 0.0006078325504166733 0.0
0.0 0.0004074671897016648 0.0
0.0 0.00023827356774490488 0.0
0.0 0.00011235371841430558 0.0
0.0 3.3340299168678704e-05 0.0
0.0 -4.3293353410480365e-06 0.0
0.0 -1.3065135881719269e-05 0.0
0.0 -7.524329079233095e-06 0.0
0.0 2.85143701073628e-07 0.0
0.0 4.052936202011271e-06 0.0
0.0 3.2100711438977452e-06 0.0
0.0 4.6653982511491865e-07 0.0
0.0 -1.3558377660158052e-06 0.0
0.0 -1.2883983013080202e-06 0.0
0.0 -1.8684383027873726e-07 0.0
0.0 6.121347252115918e-07 0.0
0.0 5.396534391672125e-07 0.0
0.0 -1.8314329037486107e-09 0.0
0.0 -3.3151897910815996e-07 0.0
0.0 -2.0928027277572157e-07 0.0
0.0 8.146324193728511e-08 0.0
0.0 1.8297880655436279e-07 0.0
0.0 5.219730703426798e-08 0.0
0.0 -9.101712991431457e-08 0.0
0.0 -8.231713016557201e-08 0.0
0.0 1.9818528217309335e-08 0.0
0.0 6.599575045082706e-08 0.0
0.0 1.7735627062583047e-08 0.0
0.0 -3.7198950912868495e-08 0.0
0.0 -2.7738193254903665e-08 0.0
0.0 1.538798284597046e-08 0.0
0.0 2.6099256710284835e-08 0.0
0.0 -9.684483768777244e-10 0.0
0.0 -1.864498628091184e-08 0.0
0.0 -4.9119053402076126e-09 0.0
0.0 1.2519430064431618e-08 0.0
0.0 7.62927929141636e-09 0.0
0.0 -6.712631848830874e-09 0.0
0.0 -6.893681087848753e-09 0.0
0.0 3.760874721286906e-09 0.0
0.0 6.349157185030982e-09 0.0
0.0 -1.1336920005417345e-09 0.0
0.0 -4.626118539523525e-09 0.0
0.0 3.9859453636097195e-10 0.0
0.0 3.940577583650606e-09 0.0
0.0 5.999790535299536e-10 0.0
0.0 -2.682275370040072e-09 0.0
0.0 -4.914641448736826e-10 0.0
0.0 2.3696965853042e-09 0.0
0.0 8.544363733345368e-10 0.0
0.0 -1.6341884770219148e-09 0.0
0.0 -5.44552791006905e-10 0.0
0.0 1.5692757710579588e-09 0.0
0.0 6.568314705146113e-10 0.0
0.0 -1.1839784508685113e-09 0.0
0.0 -3.630353344333444e-10 0.0
0.0 1.2060028293285295e-09 0.0
0.0 3.4161899866580285e-10 0.0
0.0 -1.0426445171797497e-09 0.0
0.0 -1.2444196135676732e-10 0.0
0.0 1.0594063576937583e-09 0.0
0.0 1.0594063619158422e-09 0.0
0.0 -1.2444196066626245e-10 0.0
0.0 -1.0426445195593153e-09 0.0
0.0 3.416189987418155e-10 0.0
0.0 1.206002829652125e-09 0.0
0.0 -3.6303533339067196e-10 0.0
0.0 -1.183978449615545e-09 0.0
0.0 6.568314709205882e-10 0.0
0.0 1.569275773232003e-09 0.0
0.0 -5.445527919435107e-10 0.0
0.0 -1.6341884757890553e-09 0.0
0.0 8.544363756963696e-10 0.0
0.0 2.3696965884169915e-09 0.0
0.0 -4.914641418351221e-10 0.0
0.0 -2.68227536858966e-09 0.0
0.0 5.999790576846398e-10 0.0
0.0 3.940577588844056e-09 0.0
0.0 3.985945371546327e-10 0.0
0.0 -4.626118538890279e-09 0.0
0.0 -1.133691997675236e-09 0.0
0.0 6.349157186675442e-09 0.0
0.0 3.760874721911888e-09 0.0
0.0 -6.893681085955979e-09 0.0
0.0 -6.712631849932515e-09 0.0
0.0 7.629279291082429e-09 0.0
0.0 1.2519430066421936e-08 0.0
0.0 -4.911905337780255e-09 0.0
0.0 -1.8644986279956017e-08 0.0
0.0 -9.684483778471203e-10 0.0
0.0 2.609925670919148e-08 0.0
0.0 1.538798284751957e-08 0.0
0.0 -2.7738193252196333e-08 0.0
0.0 -3.719895091511464e-08 0.0
0.0 1.7735627061768906e-08 0.0
0.0 6.599575045347442e-08 0.0
0.0 1.9818528223314716e-08 0.0
0.0 -8.231713016400693e-08 0.0
0.0 -9.101712992327044e-08 0.0
0.0 5.219730702546499e-08 0.0
0.0 1.8297880654718635e-07 0.0
0.0 8.146324194923756e-08 0.0
0.0 -2.0928027275648178e-07 0.0
0.0 -3.3151897910913225e-07 0.0
0.0 -1.8314329422980343e-09 0.0
0.0 5.396534391364213e-07 0.0
0.0 6.121347252376929e-07 0.0
0.0 -1.8684383018682235e-07 0.0
0.0 -1.2883983012360017e-06 0.0
0.0 -1.3558377660951438e-06 0.0
0.0 4.665398248664874e-07 0.0
0.0 3.21007114366624e-06 0.0
0.0 4.0529362021261855e-06 0.0
0.0 2.851437017080635e-07 0.0
0.0 -7.524329078377908e-06 0.0
0.0 -1.3065135881628597e-05 0.0
0.0 -4.329335343324715e-06 0.0
0.0 3.334029916228606e-05 0.0
0.0 0.00011235371840246194 0.0
0.0 0.00023827356772721355 0.0
0.0 0.00040746718967884496 0.0
0.0 0.000607832550390426 0.0
0.0 0.0008220550373569497 0.0
0.0 0.0010319522591077084 0.0
0.0 0.001222339594857229 0.0
0.0 0.0013833664971151921 0.0
0.0 0.0015110458069522025 0.0
0.0 0.0016063437989172944 0.0
0.0 0.0016735126717548736 0.0
0.0 0.0017183305785743207 0.0
0.0 0.0017466950971136153 0.0
0.0 0.0017637475815033901 0.0
0.0 0.0017734968362789498 0.0
0.0 0.001778801575118618 0.0
0.0 0.0017815499183486423 0.0
0.0 0.0017829059398877922 0.0
0.0 0.001783543012262079 0.0
0.0 0.0017838278857333207 0.0
0.0 0.0017839490324234443 0.0
0.0 0.001783997962379824 0.0
0.0 0.001784016703119286 0.0
0.0 0.001784023496626943 0.0
0.0 0.001784025814573486 0.0
0.0 0.001784026558396794 0.0
0.0 0.0017840267848511107 0.0
0.0 0.0017840268459430706 0.0
0.0 0.001784026862085207 0.0
0.0 0.0017840268695921944 0.0
0.0 0.0017840268703649305 0.0
0.0 0.0017840268712991272 0.0
0.0 0.0017840268750769855 0.0
0.0 0.0017840268753640594 0.0
0.0 0.0017840268763014756 0.0
0.0 0.0017840268797784647 0.0
0.0 0.001784026880115147 0.0
0.0 0.0017840268811940372 0.0
0.0 0.0017840268843651358 0.0
0.0 0.0017840268847254437 0.0
0.0 0.001784026885947691 0.0
0.0 0.0017840268888310272 0.0
0.0 0.001784026889198642 0.0
0.0 0.0017840268905583243 0.0
0.0 0.0017840268931757235 0.0
0.0 0.0017840268935329332 0.0
0.0 0.0017840268950341028 0.0
0.0 0.001784026897388774 0.0
0.0 0.001784026897731911 0.0
0.0 0.001784026899384796 0.0
0.0 0.001784026901448479 0.0
0.0 0.0017840269018204197 0.0
0.0 0.0017840269035925168 0.0
0.0 0.0017840269053594675 0.0
0.0 0.0017840269058071998 0.0
0.0 0.0017840269076398864 0.0
0.0 0.0017840269091419021 0.0
0.0 0.0017840269096738163 0.0
0.0 0.0017840269115421375 0.0
0.0 0.00178402691278315 0.0
0.0 0.0017840269134305718 0.0
0.0 0.001784026915293134 0.0
0.0 0.0017840269162817802 0.0
0.0 0.0017840269170883074 0.0
0.0 0.0017840269188763988 0.0
0.0 0.0017840269196505065 0.0
0.0 0.0017840269206486393 0.0
0.0 0.0017840269222709167 0.0
0.0 0.0017840269229237426 0.0
0.0 0.0017840269240775412 0.0
0.0 0.001784026925496267 0.0
0.0 0.0017840269261019059 0.0
0.0 0.001784026927360713 0.0
0.0 0.0017840269285690445 0.0
0.0 0.0017840269291752127 0.0
0.0 0.0017840269305008638 0.0
0.0 0.0017840269314869075 0.0
0.0 0.0017840269321509094 0.0
0.0 0.0017840269334879722 0.0
0.0 0.0017840269342535918 0.0
0.0 0.0017840269350402423 0.0
0.0 0.0017840269362968408 0.0
0.0 0.0017840269368949511 0.0
0.0 0.0017840269378348861 0.0
0.0 0.0017840269389071694 0.0
0.0 0.0017840269394550795 0.0
0.0 0.001784026940486384 0.0
0.0 0.0017840269413490373 0.0
0.0 0.0017840269419343185 0.0
0.0 0.0017840269429694896 0.0
0.0 0.0017840269436534626 0.0
0.0 0.0017840269443160453 0.0
0.0 0.0017840269452775212 0.0
0.0 0.0017840269458446203 0.0
0.0 0.001784026946573275 0.0
0.0 0.0017840269474279228 0.0
0.0 0.0017840269479167399 0.0
0.0 0.001784026948707818 0.0
0.0 0.0017840269494131854 0.0
0.0 0.0017840269498854207 0.0
0.0 0.001784026950703478 0.0
0.0 0.0017840269512382004 0.0
0.0 0.0017840269517641937 0.0
0.0 0.0017840269525337723 0.0
0.0 0.001784026952925841 0.0
0.0 0.0017840269535516647 0.0
0.0 0.0017840269541708862 0.0
0.0 0.0017840269545237068 0.0
0.0 0.001784026955203048 0.0
0.0 0.0017840269556332572 0.0
0.0 0.0017840269560506035 0.0
0.0 0.0017840269566711262 0.0
0.0 0.001784026956971884 0.0
0.0 0.0017840269574786695 0.0
0.0 0.0017840269579457424 0.0
0.0 0.0017840269582297345 0.0
0.0 0.0017840269587545894 0.0
0.0 0.001784026959063336 0.0
0.0 0.0017840269594052182 0.0
0.0 0.0017840269598455847 0.0
0.0 0.0017840269600734515 0.0
0.0 0.001784026960456613 0.0
0.0 0.0017840269607664488 0.0
0.0 0.0017840269609921266 0.0
0.0 0.0017840269613486645 0.0
0.0 0.0017840269615516115 0.0
0.0 0.0017840269618036569 0.0
0.0 0.0017840269620715643 0.0
0.0 0.0017840269622304565 0.0
0.0 0.001784026962473934 0.0
0.0 0.0017840269626490256 0.0
0.0 0.0017840269627977968 0.0
0.0 0.0017840269629913622 0.0
0.0 0.0017840269630998854 0.0
0.0 0.0017840269632392216 0.0
0.0 0.001784026963357804 0.0
0.0 0.001784026963435698 0.0
0.0 0.0017840269635349764 0.0
0.0 0.0017840269635930647 0.0
0.0 0.0017840269636438513 0.0
0.0 0.0017840269636878274 0.0
0.0 0.0017840269637022317 0.0
0.0 0.001784026963702222 0.0
0.0 0.0017840269636878107 0.0
0.0 0.0017840269636438333 0.0
0.0 0.0017840269635930567 0.0
0.0 0.0017840269635349636 0.0
0.0 0.001784026963435692 0.0
0.0 0.001784026963357812 0.0
0.0 0.0017840269632392269 0.0
0.0 0.0017840269630998839 0.0
0.0 0.0017840269629913422 0.0
0.0 0.0017840269627977861 0.0
0.0 0.0017840269626490267 0.0
0.0 0.0017840269624739347 0.0
0.0 0.0017840269622304424 0.0
0.0 0.0017840269620715728 0.0
0.0 0.0017840269618036681 0.0
0.0 0.0017840269615516163 0.0
0.0 0.0017840269613486864 0.0
0.0 0.0017840269609921506 0.0
0.0 0.0017840269607664542 0.0
0.0 0.0017840269604566257 0.0
0.0 0.0017840269600734589 0.0
0.0 0.0017840269598455758 0.0
0.0 0.0017840269594052154 0.0
0.0 0.0017840269590633391 0.0
0.0 0.0017840269587545922 0.0
0.0 0.001784026958229748 0.0
0.0 0.0017840269579457537 0.0
0.0 0.001784026957478674 0.0
0.0 0.0017840269569718951 0.0
0.0 0.0017840269566711192 0.0
0.0 0.0017840269560505894 0.0
0.0 0.0017840269556332444 0.0
0.0 0.0017840269552030314 0.0
0.0 0.0017840269545237018 0.0
0.0 0.0017840269541708827 0.0
0.0 0.0017840269535516653 0.0
0.0 0.0017840269529258363 0.0
0.0 0.0017840269525337704 0.0
0.0 0.001784026951764194 0.0
0.0 0.0017840269512382077 0.0
0.0 0.0017840269507034803 0.0
0.0 0.0017840269498854294 0.0
0.0 0.0017840269494131926 0.0
0.0 0.0017840269487078208 0.0
0.0 0.001784026947916741 0.0
0.0 0.0017840269474279193 0.0
0.0 0.0017840269465732592 0.0
0.0 0.001784026945844621 0.0
0.0 0.0017840269452775292 0.0
0.0 0.0017840269443160587 0.0
0.0 0.0017840269436534613 0.0
0.0 0.0017840269429694991 0.0
0.0 0.0017840269419343415 0.0
0.0 0.0017840269413490317 0.0
0.0 0.0017840269404863819 0.0
0.0 0.0017840269394550727 0.0
0.0 0.0017840269389071755 0.0
0.0 0.0017840269378348738 0.0
0.0 0.001784026936894944 0.0
0.0 0.0017840269362968306 0.0