# vtk DataFile Version 2.0
data_224
ASCII
DATASET UNSTRUCTURED_GRID
POINTS 804 float
0.0 0.0 0.0
0.1 0.0 0.0
0.1 20.0 0.0
0.0 20.0 0.0
0.0 0.0 -0.1
0.1 0.0 -0.1
0.1 20.0 -0.1
0.0 20.0 -0.1
0.1 0.09999999999992462 0.0
0.1 0.1999999999998517 0.0
0.1 0.2999999999997818 0.0
0.1 0.399999999999712 0.0
0.1 0.4999999999996377 0.0
0.1 0.5999999999995541 0.0
0.1 0.6999999999994495 0.0
0.1 0.7999999999993355 0.0
0.1 0.8999999999992101 0.0
0.1 0.999999999999102 0.0
0.1 1.099999999999006 0.0
0.1 1.199999999998936 0.0
0.1 1.299999999998867 0.0
0.1 1.399999999998797 0.0
0.1 1.499999999998727 0.0
0.1 1.599999999998657 0.0
0.1 1.699999999998587 0.0
0.1 1.799999999998517 0.0
0.1 1.899999999998447 0.0
0.1 1.999999999998378 0.0
0.1 2.099999999998308 0.0
0.1 2.199999999998238 0.0
0.1 2.299999999998168 0.0
0.1 2.399999999998067 0.0
0.1 2.499999999997942 0.0
0.1 2.599999999997706 0.0
0.1 2.699999999997444 0.0
0.1 2.799999999997153 0.0
0.1 2.899999999996861 0.0
0.1 2.999999999996569 0.0
0.1 3.099999999996277 0.0
0.1 3.199999999995984 0.0
0.1 3.299999999995693 0.0
0.1 3.399999999995401 0.0
0.1 3.499999999995108 0.0
0.1 3.599999999994816 0.0
0.1 3.699999999994525 0.0
0.1 3.799999999994232 0.0
0.1 3.89999999999394 0.0
0.1 3.999999999993648 0.0
0.1 4.099999999993356 0.0
0.1 4.199999999993064 0.0
0.1 4.299999999992772 0.0
0.1 4.399999999992479 0.0
0.1 4.499999999992188 0.0
0.1 4.599999999991895 0.0
0.1 4.699999999991603 0.0
0.1 4.799999999991311 0.0
0.1 4.899999999991019 0.0
0.1 4.999999999990727 0.0
0.1 5.099999999990436 0.0
0.1 5.199999999990144 0.0
0.1 5.299999999989851 0.0
0.1 5.399999999989559 0.0
0.1 5.499999999989267 0.0
0.1 5.599999999988975 0.0
0.1 5.699999999988683 0.0
0.1 5.799999999988391 0.0
0.1 5.899999999988099 0.0
0.1 5.999999999987806 0.0
0.1 6.099999999987515 0.0
0.1 6.199999999987222 0.0
0.1 6.299999999986929 0.0
0.1 6.399999999986638 0.0
0.1 6.499999999986345 0.0
0.1 6.599999999986054 0.0
0.1 6.699999999985762 0.0
0.1 6.79999999998547 0.0
0.1 6.899999999985177 0.0
0.1 6.999999999984885 0.0
0.1 7.099999999984593 0.0
0.1 7.199999999984302 0.0
0.1 7.299999999984009 0.0
0.1 7.399999999983717 0.0
0.1 7.499999999983426 0.0
0.1 7.599999999983132 0.0
0.1 7.699999999982841 0.0
0.1 7.799999999982549 0.0
0.1 7.899999999982256 0.0
0.1 7.999999999982034 0.0
0.1 8.099999999981964 0.0
0.1 8.199999999982062 0.0
0.1 8.299999999982214 0.0
0.1 8.399999999982366 0.0
0.1 8.499999999982517 0.0
0.1 8.59999999998267 0.0
0.1 8.699999999982822 0.0
0.1 8.799999999982973 0.0
0.1 8.899999999983125 0.0
0.1 8.999999999983277 0.0
0.1 9.09999999998343 0.0
0.1 9.19999999998358 0.0
0.1 9.299999999983733 0.0
0.1 9.399999999983885 0.0
0.1 9.499999999984038 0.0
0.1 9.599999999984188 0.0
0.1 9.69999999998434 0.0
0.1 9.799999999984493 0.0
0.1 9.899999999984646 0.0
0.1 9.999999999984798 0.0
0.1 10.09999999998495 0.0
0.1 10.1999999999851 0.0
0.1 10.29999999998525 0.0
0.1 10.39999999998541 0.0
0.1 10.49999999998556 0.0
0.1 10.59999999998571 0.0
0.1 10.69999999998586 0.0
0.1 10.79999999998601 0.0
0.1 10.89999999998616 0.0
0.1 10.99999999998632 0.0
0.1 11.09999999998647 0.0
0.1 11.19999999998662 0.0
0.1 11.29999999998677 0.0
0.1 11.39999999998693 0.0
0.1 11.49999999998708 0.0
0.1 11.59999999998723 0.0
0.1 11.69999999998738 0.0
0.1 11.79999999998754 0.0
0.1 11.89999999998769 0.0
0.1 11.99999999998784 0.0
0.1 12.09999999998799 0.0
0.1 12.19999999998814 0.0
0.1 12.2999999999883 0.0
0.1 12.39999999998845 0.0
0.1 12.4999999999886 0.0
0.1 12.59999999998875 0.0
0.1 12.6999999999889 0.0
0.1 12.79999999998905 0.0
0.1 12.89999999998921 0.0
0.1 12.99999999998936 0.0
0.1 13.09999999998951 0.0
0.1 13.19999999998966 0.0
0.1 13.29999999998982 0.0
0.1 13.39999999998997 0.0
0.1 13.49999999999012 0.0
0.1 13.59999999999027 0.0
0.1 13.69999999999042 0.0
0.1 13.79999999999057 0.0
0.1 13.89999999999073 0.0
0.1 13.99999999999088 0.0
0.1 14.09999999999103 0.0
0.1 14.19999999999118 0.0
0.1 14.29999999999134 0.0
0.1 14.39999999999149 0.0
0.1 14.49999999999164 0.0
0.1 14.59999999999179 0.0
0.1 14.69999999999194 0.0
0.1 14.7999999999921 0.0
0.1 14.89999999999225 0.0
0.1 14.9999999999924 0.0
0.1 15.09999999999255 0.0
0.1 15.1999999999927 0.0
0.1 15.29999999999285 0.0
0.1 15.39999999999301 0.0
0.1 15.49999999999316 0.0
0.1 15.59999999999331 0.0
0.1 15.69999999999346 0.0
0.1 15.79999999999362 0.0
0.1 15.89999999999377 0.0
0.1 15.99999999999392 0.0
0.1 16.09999999999407 0.0
0.1 16.19999999999422 0.0
0.1 16.29999999999437 0.0
0.1 16.39999999999453 0.0
0.1 16.49999999999468 0.0
0.1 16.59999999999483 0.0
0.1 16.69999999999498 0.0
0.1 16.79999999999514 0.0
0.1 16.89999999999528 0.0
0.1 16.99999999999544 0.0
0.1 17.09999999999559 0.0
0.1 17.19999999999574 0.0
0.1 17.29999999999589 0.0
0.1 17.39999999999605 0.0
0.1 17.4999999999962 0.0
0.1 17.59999999999635 0.0
0.1 17.6999999999965 0.0
0.1 17.79999999999665 0.0
0.1 17.89999999999681 0.0
0.1 17.99999999999696 0.0
0.1 18.09999999999711 0.0
0.1 18.19999999999726 0.0
0.1 18.29999999999742 0.0
0.1 18.39999999999757 0.0
0.1 18.49999999999772 0.0
0.1 18.59999999999787 0.0
0.1 18.69999999999802 0.0
0.1 18.79999999999818 0.0
0.1 18.89999999999833 0.0
0.1 18.99999999999848 0.0
0.1 19.09999999999863 0.0
0.1 19.19999999999878 0.0
0.1 19.29999999999894 0.0
0.1 19.39999999999909 0.0
0.1 19.49999999999924 0.0
0.1 19.59999999999939 0.0
0.1 19.69999999999955 0.0
0.1 19.7999999999997 0.0
0.1 19.89999999999985 0.0
0.0 19.9 0.0
0.0 19.8 0.0
0.0 19.7 0.0
0.0 19.6 0.0
0.0 19.5 0.0
0.0 19.4 0.0
0.0 19.3 0.0
0.0 19.2 0.0
0.0 19.1 0.0
0.0 19.0 0.0
0.0 18.9 0.0
0.0 18.8 0.0
0.0 18.7 0.0
0.0 18.6 0.0
0.0 18.5 0.0
0.0 18.4 0.0
0.0 18.3 0.0
0.0 18.2 0.0
0.0 18.1 0.0
0.0 18.0 0.0
0.0 17.9 0.0
0.0 17.8 0.0
0.0 17.7 0.0
0.0 17.6 0.0
0.0 17.5 0.0
0.0 17.4 0.0
0.0 17.3 0.0
0.0 17.2 0.0
0.0 17.09999999999999 0.0
0.0 17.0 0.0
0.0 16.9 0.0
0.0 16.8 0.0
0.0 16.7 0.0
0.0 16.59999999999999 0.0
0.0 16.49999999999999 0.0
0.0 16.4 0.0
0.0 16.29999999999999 0.0
0.0 16.2 0.0
0.0 16.09999999999999 0.0
0.0 15.99999999999999 0.0
0.0 15.89999999999999 0.0
0.0 15.79999999999999 0.0
0.0 15.69999999999999 0.0
0.0 15.59999999999999 0.0
0.0 15.49999999999999 0.0
0.0 15.39999999999999 0.0
0.0 15.29999999999999 0.0
0.0 15.19999999999999 0.0
0.0 15.09999999999999 0.0
0.0 14.99999999999999 0.0
0.0 14.89999999999999 0.0
0.0 14.79999999999999 0.0
0.0 14.69999999999999 0.0
0.0 14.59999999999999 0.0
0.0 14.49999999999999 0.0
0.0 14.39999999999999 0.0
0.0 14.29999999999999 0.0
0.0 14.19999999999999 0.0
0.0 14.09999999999999 0.0
0.0 13.99999999999999 0.0
0.0 13.89999999999999 0.0
0.0 13.79999999999999 0.0
0.0 13.69999999999999 0.0
0.0 13.59999999999999 0.0
0.0 13.49999999999999 0.0
0.0 13.39999999999999 0.0
0.0 13.29999999999999 0.0
0.0 13.19999999999999 0.0
0.0 13.09999999999999 0.0
0.0 12.99999999999999 0.0
0.0 12.89999999999999 0.0
0.0 12.79999999999999 0.0
0.0 12.69999999999999 0.0
0.0 12.59999999999999 0.0
0.0 12.49999999999999 0.0
0.0 12.39999999999999 0.0
0.0 12.29999999999999 0.0
0.0 12.19999999999999 0.0
0.0 12.09999999999999 0.0
0.0 11.99999999999999 0.0
0.0 11.89999999999999 0.0
0.0 11.79999999999999 0.0
0.0 11.69999999999999 0.0
0.0 11.59999999999999 0.0
0.0 11.49999999999999 0.0
0.0 11.39999999999999 0.0
0.0 11.29999999999999 0.0
0.0 11.19999999999999 0.0
0.0 11.09999999999999 0.0
0.0 10.99999999999999 0.0
0.0 10.89999999999999 0.0
0.0 10.79999999999999 0.0
0.0 10.69999999999999 0.0
0.0 10.59999999999999 0.0
0.0 10.49999999999999 0.0
0.0 10.39999999999999 0.0
0.0 10.29999999999999 0.0
0.0 10.19999999999999 0.0
0.0 10.09999999999999 0.0
0.0 9.999999999999993 0.0
0.0 9.899999999999993 0.0
0.0 9.799999999999994 0.0
0.0 9.699999999999992 0.0
0.0 9.599999999999993 0.0
0.0 9.499999999999993 0.0
0.0 9.399999999999993 0.0
0.0 9.299999999999995 0.0
0.0 9.199999999999996 0.0
0.0 9.099999999999994 0.0
0.0 8.999999999999995 0.0
0.0 8.899999999999995 0.0
0.0 8.799999999999994 0.0
0.0 8.699999999999994 0.0
0.0 8.599999999999994 0.0
0.0 8.499999999999995 0.0
0.0 8.399999999999995 0.0
0.0 8.299999999999994 0.0
0.0 8.199999999999994 0.0
0.0 8.099999999999994 0.0
0.0 7.999999999999993 0.0
0.0 7.899999999999995 0.0
0.0 7.799999999999995 0.0
0.0 7.699999999999996 0.0
0.0 7.599999999999996 0.0
0.0 7.499999999999996 0.0
0.0 7.399999999999995 0.0
0.0 7.299999999999995 0.0
0.0 7.199999999999996 0.0
0.0 7.099999999999994 0.0
0.0 6.999999999999995 0.0
0.0 6.899999999999995 0.0
0.0 6.799999999999995 0.0
0.0 6.699999999999996 0.0
0.0 6.599999999999994 0.0
0.0 6.499999999999995 0.0
0.0 6.399999999999997 0.0
0.0 6.299999999999997 0.0
0.0 6.199999999999996 0.0
0.0 6.099999999999996 0.0
0.0 5.999999999999996 0.0
0.0 5.899999999999997 0.0
0.0 5.799999999999997 0.0
0.0 5.699999999999996 0.0
0.0 5.599999999999996 0.0
0.0 5.499999999999996 0.0
0.0 5.399999999999995 0.0
0.0 5.299999999999995 0.0
0.0 5.199999999999996 0.0
0.0 5.099999999999996 0.0
0.0 4.999999999999998 0.0
0.0 4.899999999999999 0.0
0.0 4.799999999999997 0.0
0.0 4.699999999999998 0.0
0.0 4.599999999999998 0.0
0.0 4.499999999999996 0.0
0.0 4.399999999999997 0.0
0.0 4.299999999999997 0.0
0.0 4.199999999999998 0.0
0.0 4.099999999999998 0.0
0.0 3.999999999999996 0.0
0.0 3.899999999999999 0.0
0.0 3.799999999999997 0.0
0.0 3.699999999999996 0.0
0.0 3.599999999999998 0.0
0.0 3.5 0.0
0.0 3.399999999999999 0.0
0.0 3.299999999999997 0.0
0.0 3.199999999999999 0.0
0.0 3.099999999999998 0.0
0.0 3.0 0.0
0.0 2.899999999999999 0.0
0.0 2.799999999999997 0.0
0.0 2.699999999999999 0.0
0.0 2.599999999999998 0.0
0.0 2.499999999999996 0.0
0.0 2.399999999999999 0.0
0.0 2.299999999999997 0.0
0.0 2.199999999999999 0.0
0.0 2.100000000000001 0.0
0.0 2.0 0.0
0.0 1.899999999999999 0.0
0.0 1.800000000000001 0.0
0.0 1.699999999999999 0.0
0.0 1.599999999999998 0.0
0.0 1.5 0.0
0.0 1.399999999999999 0.0
0.0 1.299999999999997 0.0
0.0 1.199999999999999 0.0
0.0 1.099999999999998 0.0
0.0 1.0 0.0
0.0 0.8999999999999986 0.0
0.0 0.8000000000000007 0.0
0.0 0.6999999999999993 0.0
0.0 0.6000000000000014 0.0
0.0 0.5 0.0
0.0 0.3999999999999986 0.0
0.0 0.3000000000000007 0.0
0.0 0.1999999999999993 0.0
[...]
POINT_DATA 804
VECTORS displacement double
0.0 0.0 0.0
0.0 0.0 0.0
0.0 -0.0017876918820991167 0.0
0.0 -0.0017876918820990888 0.0
0.0 0.0 0.0
0.0 0.0 0.0
0.0 -0.0017876918820991087 0.0
0.0 -0.0017876918820991063 0.0
0.0 -1.5922640879876776e-26 0.0
0.0 1.4563115526501505e-26 0.0
0.0 6.036639605422128e-25 0.0
0.0 4.97639165188209e-26 0.0
0.0 -2.229620372279705e-23 0.0
0.0 -3.4663115150175017e-23 0.0
0.0 7.40496155007217e-22 0.0
0.0 2.678874011126382e-21 0.0
0.0 -1.9758573277931967e-20 0.0
0.0 -1.4008174156271867e-19 0.0
0.0 2.8011804727865453e-19 0.0
0.0 5.4367767536834855e-18 0.0
0.0 8.586185964841635e-18 0.0
0.0 -1.4161093698487287e-16 0.0
0.0 -7.989365176221053e-16 0.0
0.0 1.0618112939262634e-15 0.0
0.0 2.8206959333302437e-14 0.0
0.0 9.844465577981639e-14 0.0
0.0 -3.175670350920465e-13 0.0
0.0 -4.3356914869583834e-12 0.0
0.0 -1.4973206830917152e-11 0.0
0.0 2.7506160986893547e-11 0.0
0.0 5.429336495751593e-10 0.0
0.0 2.732840405865244e-09 0.0
0.0 5.07469192199569e-09 0.0
0.0 -2.776717614475056e-08 0.0
0.0 -3.1090299550120885e-07 0.0
0.0 -1.7304880556986713e-06 0.0
0.0 -7.106884096578528e-06 0.0
0.0 -2.3663300854792275e-05 0.0
0.0 -6.639074331476935e-05 0.0
0.0 -0.00015999349248392255 0.0
0.0 -0.00033456271198692656 0.0
0.0 -0.0006102962544354121 0.0
0.0 -0.0009738087131345541 0.0
0.0 -0.0013620957353440192 0.0
0.0 -0.0016776487903561537 0.0
0.0 -0.001841611078239823 0.0
0.0 -0.0018521342153582677 0.0
0.0 -0.0017904648613605383 0.0
0.0 -0.0017535285552804356 0.0
0.0 -0.0017720170873292633 0.0
0.0 -0.0018026858209451023 0.0
0.0 -0.0018015816022782958 0.0
0.0 -0.0017809100345309655 0.0
0.0 -0.0017773189565380865 0.0
0.0 -0.0017913013807448672 0.0
0.0 -0.0017950136518476152 0.0
0.0 -0.0017848738648006536 0.0
0.0 -0.0017824939684014675 0.0
0.0 -0.001790364648827868 0.0
0.0 -0.0017910304624117277 0.0
0.0 -0.0017848062618944546 0.0
0.0 -0.00178582495335982 0.0
0.0 -0.0017904464457680325 0.0
0.0 -0.001788059092630681 0.0
0.0 -0.0017852563884491362 0.0
0.0 -0.0017883912506077538 0.0
0.0 -0.0017892156467218792 0.0
0.0 -0.001786215783204237 0.0
0.0 -0.0017871700678310756 0.0
0.0 -0.001789115397147738 0.0
0.0 -0.0017871118116588136 0.0
0.0 -0.00178678015348528 0.0
0.0 -0.0017887058874968568 0.0
0.0 -0.0017876035345084763 0.0
0.0 -0.0017867835767981228 0.0
0.0 -0.0017883711264501064 0.0
0.0 -0.001787791400189247 0.0
0.0 -0.001786903223130401 0.0
0.0 -0.0017881776104407693 0.0
0.0 -0.0017878123026717717 0.0
0.0 -0.0017870333252673848 0.0
0.0 -0.0017880915829974072 0.0
0.0 -0.0017877494051035134 0.0
0.0 -0.0017871553373173584 0.0
0.0 -0.001788064279499578 0.0
0.0 -0.0017876441785285083 0.0
0.0 -0.0017872821387892122 0.0
0.0 -0.0017880508644448987 0.0
0.0 -0.0017875227492736353 0.0
0.0 -0.001787429531915777 0.0
0.0 -0.0017880115729667096 0.0
0.0 -0.0017874148659144838 0.0
0.0 -0.0017875987034986097 0.0
0.0 -0.0017879165811842794 0.0
0.0 -0.0017873601441499728 0.0
0.0 -0.0017877637566403202 0.0
0.0 -0.0017877607931930319 0.0
0.0 -0.0017873966905953725 0.0
0.0 -0.0017878712007394115 0.0
0.0 -0.00178758154845042 0.0
0.0 -0.0017875316217878731 0.0
0.0 -0.0017878644634700118 0.0
0.0 -0.0017874579166764755 0.0
0.0 -0.0017877103697520387 0.0
0.0 -0.0017877343373419083 0.0
0.0 -0.0017874677685053046 0.0
0.0 -0.0017878234556494802 0.0
0.0 -0.0017875610400506054 0.0
0.0 -0.0017876106559068087 0.0
0.0 -0.0017877817010389545 0.0
0.0 -0.0017874840938774692 0.0
0.0 -0.0017877665230578035 0.0
0.0 -0.0017876210863689962 0.0
0.0 -0.0017875772451254343 0.0
0.0 -0.001787779505203674 0.0
0.0 -0.0017875107521443518 0.0
0.0 -0.0017877362909447553 0.0
0.0 -0.00178763729441721 0.0
0.0 -0.0017875810042891865 0.0
0.0 -0.0017877624540764295 0.0
0.0 -0.001787527547447925 0.0
0.0 -0.0017877320789050767 0.0
0.0 -0.0017876243565015525 0.0
0.0 -0.001787606062746455 0.0
0.0 -0.0017877371887781968 0.0
0.0 -0.0017875400627426381 0.0
0.0 -0.0017877405378952543 0.0
0.0 -0.001787595106178916 0.0
0.0 -0.0017876475483181303 0.0
0.0 -0.0017876973343963817 0.0
0.0 -0.001787564165519904 0.0
0.0 -0.0017877417856225193 0.0
0.0 -0.00178756667873362 0.0
0.0 -0.0017876967466697034 0.0
0.0 -0.0017876401181454054 0.0
0.0 -0.0017876141184811935 0.0
0.0 -0.0017877127478606932 0.0
0.0 -0.0017875664233222963 0.0
0.0 -0.0017877274972309736 0.0
0.0 -0.001787584999751516 0.0
0.0 -0.0017876819150978893 0.0
0.0 -0.001787646753148586 0.0
0.0 -0.0017876166839796237 0.0
0.0 -0.0017877035392686836 0.0
0.0 -0.001787577493019156 0.0
0.0 -0.0017877199892027365 0.0
0.0 -0.0017875846443321274 0.0
0.0 -0.0017876922302891892 0.0
0.0 -0.0017876272020106272 0.0
0.0 -0.0017876422410361466 0.0
0.0 -0.001787677030350307 0.0
0.0 -0.0017875993013378954 0.0
0.0 -0.0017877080467224654 0.0
0.0 -0.0017875831477905198 0.0
0.0 -0.0017877085905968796 0.0
0.0 -0.0017875970198495308 0.0
0.0 -0.0017876830296064397 0.0
0.0 -0.0017876305771376787 0.0
0.0 -0.0017876455974694845 0.0
0.0 -0.0017876678665724763 0.0
0.0 -0.0017876119820077277 0.0
0.0 -0.0017876950648856534 0.0
0.0 -0.0017875930323418942 0.0
0.0 -0.0017877048946859711 0.0
0.0 -0.0017875923265440444 0.0
0.0 -0.0017876972200037591 0.0
0.0 -0.0017876070929915187 0.0
0.0 -0.0017876770201736688 0.0
0.0 -0.0017876309071326358 0.0
0.0 -0.001787651424629809 0.0
0.0 -0.0017876565903953354 0.0
0.0 -0.0017876271293205159 0.0
0.0 -0.0017876783188875982 0.0
0.0 -0.0017876088399439182 0.0
0.0 -0.0017876926199170379 0.0
0.0 -0.0017875987923097626 0.0
0.0 -0.001787698412226793 0.0
0.0 -0.00178759705595044 0.0
0.0 -0.0017876964588633166 0.0
0.0 -0.0017876022297049438 0.0
0.0 -0.0017876886062349845 0.0
0.0 -0.0017876122006384029 0.0
0.0 -0.0017876770775879475 0.0
0.0 -0.0017876247642528013 0.0
0.0 -0.0017876639583612537 0.0
0.0 -0.001787638026482307 0.0
0.0 -0.0017876509045266424 0.0
0.0 -0.0017876505940071761 0.0
0.0 -0.0017876390404201207 0.0
0.0 -0.00178766160361644 0.0
0.0 -0.001787628986339647 0.0
0.0 -0.001787670652801867 0.0
0.0 -0.0017876209561018838 0.0
0.0 -0.0017876776857516116 0.0
0.0 -0.001787614877947712 0.0
0.0 -0.001787682872952983 0.0
0.0 -0.001787610509017863 0.0
0.0 -0.0017876865062914323 0.0
0.0 -0.0017876075285096647 0.0
0.0 -0.0017876889186135185 0.0
0.0 -0.0017876056053351172 0.0
0.0 -0.0017876904282425232 0.0
0.0 -0.0017876044424839951 0.0
0.0 -0.0017876913044185545 0.0
0.0 -0.0017876038032197832 0.0
0.0 -0.0017876917480171971 0.0
0.0 -0.0017876035248229046 0.0
0.0 -0.0017876035248228963 0.0
0.0 -0.0017876917480171958 0.0
0.0 -0.0017876038032197852 0.0
0.0 -0.0017876913044185554 0.0
0.0 -0.0017876044424839992 0.0
0.0 -0.0017876904282425256 0.0
0.0 -0.0017876056053351237 0.0
0.0 -0.001787688918613509 0.0
0.0 -0.0017876075285096693 0.0
0.0 -0.0017876865062914254 0.0
0.0 -0.001787610509017857 0.0
0.0 -0.0017876828729529884 0.0
0.0 -0.0017876148779477111 0.0
0.0 -0.0017876776857516153 0.0
0.0 -0.0017876209561018769 0.0
0.0 -0.0017876706528018734 0.0
0.0 -0.0017876289863396483 0.0
0.0 -0.0017876616036164462 0.0
0.0 -0.0017876390404200936 0.0
0.0 -0.0017876505940071872 0.0
0.0 -0.001787650904526645 0.0
0.0 -0.001787638026482289 0.0
0.0 -0.001787663958361258 0.0
0.0 -0.0017876247642527841 0.0
0.0 -0.001787677077587952 0.0
0.0 -0.0017876122006383948 0.0
0.0 -0.0017876886062349925 0.0
0.0 -0.0017876022297049516 0.0
0.0 -0.00178769645886331 0.0
0.0 -0.0017875970559504317 0.0
0.0 -0.0017876984122268053 0.0
0.0 -0.001787598792309769 0.0
0.0 -0.0017876926199170287 0.0
0.0 -0.00178760883994393 0.0
0.0 -0.0017876783188876214 0.0
0.0 -0.0017876271293205145 0.0
0.0 -0.0017876565903953401 0.0
0.0 -0.0017876514246298165 0.0
0.0 -0.0017876309071326202 0.0
0.0 -0.0017876770201736805 0.0
0.0 -0.0017876070929915117 0.0
0.0 -0.0017876972200037363 0.0
0.0 -0.0017875923265440379 0.0
0.0 -0.0017877048946859826 0.0
0.0 -0.0017875930323418858 0.0
0.0 -0.0017876950648856495 0.0
0.0 -0.0017876119820077275 0.0
0.0 -0.0017876678665724715 0.0
0.0 -0.001787645597469476 0.0
0.0 -0.001787630577137666 0.0
0.0 -0.0017876830296064332 0.0
0.0 -0.0017875970198495464 0.0
0.0 -0.001787708590596884 0.0
0.0 -0.0017875831477905048 0.0
0.0 -0.0017877080467224723 0.0
0.0 -0.0017875993013378964 0.0
0.0 -0.0017876770303502994 0.0
0.0 -0.0017876422410361638 0.0
0.0 -0.0017876272020106291 0.0
0.0 -0.0017876922302892003 0.0
0.0 -0.0017875846443321157 0.0
0.0 -0.0017877199892027207 0.0
0.0 -0.0017875774930191449 0.0
0.0 -0.0017877035392686812 0.0
0.0 -0.001787616683979635 0.0
0.0 -0.0017876467531485743 0.0
0.0 -0.0017876819150978974 0.0
0.0 -0.001787584999751494 0.0
0.0 -0.0017877274972309819 0.0
0.0 -0.0017875664233223158 0.0
0.0 -0.0017877127478606876 0.0
0.0 -0.0017876141184812013 0.0
0.0 -0.0017876401181454017 0.0
0.0 -0.0017876967466697157 0.0
0.0 -0.001787566678733614 0.0
0.0 -0.0017877417856225098 0.0
0.0 -0.0017875641655199057 0.0
0.0 -0.0017876973343963778 0.0
0.0 -0.0017876475483181423 0.0
0.0 -0.0017875951061788948 0.0
0.0 -0.0017877405378952701 0.0
0.0 -0.0017875400627426438 0.0
0.0 -0.0017877371887781983 0.0
0.0 -0.0017876060627464694 0.0
0.0 -0.001787624356501534 0.0
0.0 -0.0017877320789050834 0.0
0.0 -0.0017875275474479324 0.0
0.0 -0.0017877624540764293 0.0
0.0 -0.0017875810042892175 0.0
0.0 -0.0017876372944172034 0.0
0.0 -0.0017877362909447584 0.0
0.0 -0.0017875107521443476 0.0
0.0 -0.0017877795052036692 0.0
0.0 -0.0017875772451254517 0.0
0.0 -0.0017876210863689583 0.0
0.0 -0.0017877665230578196 0.0
0.0 -0.001787484093877483 0.0
0.0 -0.001787781701038952 0.0
0.0 -0.0017876106559068568 0.0
0.0 -0.0017875610400505744 0.0
0.0 -0.0017878234556495101 0.0
0.0 -0.0017874677685053263 0.0
0.0 -0.0017877343373418684 0.0
0.0 -0.0017877103697520973 0.0
0.0 -0.001787457916676448 0.0
0.0 -0.001787864463470006 0.0
0.0 -0.0017875316217879447 0.0
0.0 -0.001787581548450363 0.0
0.0 -0.0017878712007394332 0.0
0.0 -0.0017873966905954046 0.0
0.0 -0.0017877607931929618 0.0
0.0 -0.001787763756640398 0.0
0.0 -0.0017873601441499444 0.0
0.0 -0.0017879165811842143 0.0
0.0 -0.0017875987034987146 0.0
0.0 -0.0017874148659144141 0.0
0.0 -0.001788011572966713 0.0
0.0 -0.0017874295319158771 0.0
0.0 -0.0017875227492735154 0.0
0.0 -0.0017880508644449432 0.0
0.0 -0.001787282138789297 0.0
0.0 -0.0017876441785283598 0.0
0.0 -0.0017880642794996628 0.0
0.0 -0.0017871553373174191 0.0
0.0 -0.00178774940510336 0.0
0.0 -0.0017880915829975145 0.0
0.0 -0.0017870333252674462 0.0
0.0 -0.0017878123026715748 0.0
0.0 -0.0017881776104409026 0.0
0.0 -0.0017869032231304647 0.0
0.0 -0.001787791400189023 0.0
0.0 -0.0017883711264502437 0.0
0.0 -0.00178678357679825 0.0
0.0 -0.0017876035345082237 0.0
0.0 -0.0017887058874969481 0.0
0.0 -0.001786780153485478 0.0
0.0 -0.00178711181165853 0.0
0.0 -0.0017891153971477168 0.0
0.0 -0.001787170067831391 0.0
0.0 -0.001786215783204024 0.0
0.0 -0.0017892156467216457 0.0
0.0 -0.0017883912506081302 0.0
0.0 -0.0017852563884491958 0.0
0.0 -0.001788059092630197 0.0
0.0 -0.0017904464457681956 0.0
0.0 -0.0017858249533603259 0.0
0.0 -0.0017848062618940547 0.0
0.0 -0.0017910304624112554 0.0
0.0 -0.0017903646488284797 0.0
0.0 -0.0017824939684019003 0.0
0.0 -0.001784873864799832 0.0
0.0 -0.0017950136518471162 0.0
0.0 -0.0017913013807459171 0.0
0.0 -0.001777318956538773 0.0
0.0 -0.0017809100345297087 0.0
0.0 -0.001801581602277038 0.0
0.0 -0.001802685820946397 0.0
0.0 -0.001772017087331626 0.0
0.0 -0.0017535285552799553 0.0
0.0 -0.00179046486135663 0.0
0.0 -0.001852134215355706 0.0
0.0 -0.0018416110782444733 0.0
0.0 -0.0016776487903697626 0.0
0.0 -0.0013620957353631445 0.0
0.0 -0.0009738087131536372 0.0
0.0 -0.0006102962544503604 0.0
0.0 -0.00033456271199651887 0.0
0.0 -0.00015999349248907576 0.0
0.0 -6.639074331710034e-05 0.0
0.0 -2.366330085568166e-05 0.0
0.0 -7.106884096861076e-06 0.0
0.0 -1.7304880557715862e-06 0.0
0.0 -3.109029955156573e-07 0.0
0.0 -2.776717614662251e-08 0.0
0.0 5.07469192198209e-09 0.0
0.0 2.732840405933543e-09 0.0
0.0 5.429336495950063e-10 0.0
0.0 2.750616098934859e-11 0.0
0.0 -1.497320683109991e-11 0.0
0.0 -4.335691487089174e-12 0.0
0.0 -3.1756703511168626e-13 0.0
0.0 9.844465578071458e-14 0.0
0.0 2.8206959334111824e-14 0.0
0.0 1.0618112940219956e-15 0.0
0.0 -7.9893651763399035e-16 0.0
0.0 -1.416109369893308e-16 0.0
0.0 8.586185964674228e-18 0.0
0.0 5.436776753794012e-18 0.0
0.0 2.8011804729382547e-19 0.0
0.0 -1.400817415644368e-19 0.0
0.0 -1.975857327841058e-20 0.0
0.0 2.6788740111398675e-21 0.0
0.0 7.4049615501739635e-22 0.0
0.0 -3.466311515005217e-23 0.0
0.0 -2.229620372297759e-23 0.0
0.0 4.9763916511750414e-26 0.0
0.0 6.036639605450705e-25 0.0
0.0 1.456311552658653e-26 0.0
0.0 -1.5922640879911702e-26 0.0
0.0 -1.592264087987687e-26 0.0
0.0 1.4563115526502136e-26 0.0
0.0 6.0366396054220935e-25 0.0
0.0 4.976391651883525e-26 0.0
0.0 -2.229620372279715e-23 0.0
0.0 -3.4663115150174176e-23 0.0
0.0 7.404961550072115e-22 0.0
0.0 2.6788740111264244e-21 0.0
0.0 -1.9758573277932132e-20 0.0
0.0 -1.4008174156271778e-19 0.0
0.0 2.8011804727864904e-19 0.0
0.0 5.436776753683513e-18 0.0
0.0 8.586185964841542e-18 0.0
0.0 -1.4161093698487193e-16 0.0
0.0 -7.989365176221036e-16 0.0
0.0 1.061811293926243e-15 0.0
0.0 2.8206959333302554e-14 0.0
0.0 9.844465577981517e-14 0.0
0.0 -3.1756703509203774e-13 0.0
0.0 -4.335691486958403e-12 0.0
0.0 -1.4973206830917085e-11 0.0
0.0 2.7506160986892846e-11 0.0
0.0 5.429336495751614e-10 0.0
0.0 2.7328404058652275e-09 0.0
0.0 5.074691921995692e-09 0.0
0.0 -2.7767176144750952e-08 0.0
0.0 -3.109029955012072e-07 0.0
0.0 -1.730488055698678e-06 0.0
0.0 -7.106884096578526e-06 0.0
0.0 -2.366330085479231e-05 0.0
0.0 -6.63907433147692e-05 0.0
0.0 -0.00015999349248392277 0.0
0.0 -0.000334562711986926 0.0
0.0 -0.0006102962544354111 0.0
0.0 -0.0009738087131345543 0.0
0.0 -0.0013620957353440183 0.0
0.0 -0.0016776487903561528 0.0
0.0 -0.0018416110782398126 0.0
0.0 -0.0018521342153582686 0.0
0.0 -0.0017904648613605325 0.0
0.0 -0.0017535285552804393 0.0
0.0 -0.0017720170873292607 0.0
0.0 -0.0018026858209451056 0.0
0.0 -0.001801581602278292 0.0
0.0 -0.0017809100345309746 0.0
0.0 -0.0017773189565380677 0.0
0.0 -0.0017913013807448672 0.0
0.0 -0.0017950136518476091 0.0
0.0 -0.0017848738648006553 0.0
0.0 -0.0017824939684014586 0.0
0.0 -0.001790364648827877 0.0
0.0 -0.0017910304624117312 0.0
0.0 -0.0017848062618944524 0.0
0.0 -0.0017858249533598302 0.0
0.0 -0.0017904464457680334 0.0
0.0 -0.0017880590926306883 0.0
0.0 -0.001785256388449134 0.0
0.0 -0.001788391250607748 0.0
0.0 -0.0017892156467218866 0.0
0.0 -0.001786215783204236 0.0
0.0 -0.0017871700678310628 0.0
0.0 -0.0017891153971477298 0.0
0.0 -0.0017871118116588043 0.0
0.0 -0.0017867801534852661 0.0
0.0 -0.0017887058874968456 0.0
0.0 -0.0017876035345084766 0.0
0.0 -0.0017867835767981335 0.0
0.0 -0.001788371126450115 0.0
0.0 -0.0017877914001892415 0.0
0.0 -0.001786903223130394 0.0
0.0 -0.001788177610440756 0.0
0.0 -0.001787812302671768 0.0
0.0 -0.0017870333252674002 0.0
0.0 -0.0017880915829974072 0.0
0.0 -0.0017877494051035164 0.0
0.0 -0.0017871553373173612 0.0
0.0 -0.0017880642794995767 0.0
0.0 -0.0017876441785285113 0.0
0.0 -0.0017872821387892098 0.0
0.0 -0.0017880508644448976 0.0
0.0 -0.0017875227492736374 0.0
0.0 -0.0017874295319157813 0.0
0.0 -0.0017880115729667116 0.0
0.0 -0.0017874148659144922 0.0
0.0 -0.001787598703498621 0.0
0.0 -0.0017879165811842668 0.0
0.0 -0.0017873601441499784 0.0
0.0 -0.0017877637566403282 0.0
0.0 -0.001787760793193032 0.0
0.0 -0.0017873966905953827 0.0
0.0 -0.001787871200739401 0.0
0.0 -0.0017875815484504243 0.0
0.0 -0.0017875316217878842 0.0
0.0 -0.0017878644634700103 0.0
0.0 -0.0017874579166764744 0.0
0.0 -0.0017877103697520348 0.0
0.0 -0.0017877343373419064 0.0
0.0 -0.0017874677685053002 0.0
0.0 -0.001787823455649489 0.0
0.0 -0.0017875610400506041 0.0
0.0 -0.0017876106559067983 0.0
0.0 -0.0017877817010389712 0.0
0.0 -0.0017874840938774757 0.0
0.0 -0.0017877665230578066 0.0
0.0 -0.0017876210863689936 0.0
0.0 -0.001787577245125422 0.0
0.0 -0.001787779505203673 0.0
0.0 -0.0017875107521443544 0.0
0.0 -0.0017877362909447234 0.0
0.0 -0.001787637294417226 0.0
0.0 -0.001787581004289192 0.0
0.0 -0.0017877624540764236 0.0
0.0 -0.0017875275474479283 0.0
0.0 -0.0017877320789050672 0.0
0.0 -0.0017876243565015486 0.0
0.0 -0.001787606062746451 0.0
0.0 -0.001787737188778208 0.0
0.0 -0.0017875400627426392 0.0
0.0 -0.001787740537895261 0.0
0.0 -0.0017875951061789052 0.0
0.0 -0.0017876475483181288 0.0
0.0 -0.0017876973343963984 0.0
0.0 -0.0017875641655199146 0.0
0.0 -0.001787741785622511 0.0
0.0 -0.0017875666787336203 0.0
0.0 -0.0017876967466697027 0.0
0.0 -0.0017876401181454087 0.0
0.0 -0.0017876141184811846 0.0
0.0 -0.001787712747860699 0.0
0.0 -0.0017875664233223119 0.0
0.0 -0.0017877274972309864 0.0
0.0 -0.0017875849997515067 0.0
0.0 -0.0017876819150978928 0.0
0.0 -0.0017876467531485855 0.0
0.0 -0.0017876166839796337 0.0
0.0 -0.001787703539268689 0.0
0.0 -0.0017875774930191538 0.0
0.0 -0.0017877199892027205 0.0
0.0 -0.0017875846443321116 0.0
0.0 -0.0017876922302891862 0.0
0.0 -0.0017876272020106352 0.0
0.0 -0.0017876422410361642 0.0
0.0 -0.0017876770303503048 0.0
0.0 -0.0017875993013379016 0.0
0.0 -0.0017877080467224808 0.0
0.0 -0.0017875831477905091 0.0
0.0 -0.001787708590596901 0.0
0.0 -0.0017875970198495427 0.0
0.0 -0.00178768302960644 0.0
0.0 -0.0017876305771376715 0.0
0.0 -0.0017876455974694784 0.0
0.0 -0.0017876678665724678 0.0
0.0 -0.00178761198200773 0.0
0.0 -0.001787695064885661 0.0
0.0 -0.001787593032341889 0.0
0.0 -0.0017877048946859891 0.0
0.0 -0.0017875923265440314 0.0
0.0 -0.0017876972200037357 0.0
0.0 -0.0017876070929915067 0.0
0.0 -0.0017876770201736604 0.0
0.0 -0.001787630907132613 0.0
0.0 -0.0017876514246298052 0.0
0.0 -0.0017876565903953386 0.0
0.0 -0.0017876271293205185 0.0
0.0 -0.001787678318887616 0.0
0.0 -0.0017876088399439165 0.0
0.0 -0.001787692619917018 0.0
0.0 -0.0017875987923097589 0.0
0.0 -0.0017876984122268044 0.0
0.0 -0.0017875970559504328 0.0
0.0 -0.0017876964588633085 0.0
0.0 -0.0017876022297049472 0.0
0.0 -0.0017876886062349968 0.0
0.0 -0.0017876122006383955 0.0
0.0 -0.0017876770775879396 0.0
0.0 -0.0017876247642527874 0.0
0.0 -0.0017876639583612598 0.0
0.0 -0.00178763802648229 0.0
0.0 -0.001787650904526652 0.0
0.0 -0.0017876505940071763 0.0
0.0 -0.0017876390404200962 0.0
0.0 -0.0017876616036164622 0.0
0.0 -0.001787628986339658 0.0
0.0 -0.0017876706528018739 0.0
0.0 -0.0017876209561018845 0.0
0.0 -0.0017876776857516114 0.0
0.0 -0.0017876148779477116 0.0
0.0 -0.0017876828729529812 0.0
0.0 -0.0017876105090178633 0.0
0.0 -0.0017876865062914221 0.0
0.0 -0.00178760752850966 0.0
0.0 -0.0017876889186135096 0.0
0.0 -0.0017876056053351126 0.0
0.0 -0.0017876904282425146 0.0
0.0 -0.0017876044424839919 0.0
0.0 -0.0017876913044185558 0.0
0.0 -0.0017876038032197822 0.0
0.0 -0.001787691748017202 0.0
0.0 -0.0017876035248229076 0.0
0.0 -0.0017876035248229043 0.0
0.0 -0.0017876917480171995 0.0
0.0 -0.0017876038032197889 0.0
0.0 -0.0017876913044185569 0.0
0.0 -0.0017876044424839877 0.0
0.0 -0.0017876904282425154 0.0
0.0 -0.0017876056053351187 0.0
0.0 -0.0017876889186135125 0.0
0.0 -0.001787607528509653 0.0
0.0 -0.0017876865062914414 0.0
0.0 -0.0017876105090178678 0.0
0.0 -0.0017876828729529745 0.0
0.0 -0.0017876148779477135 0.0
0.0 -0.0017876776857516073 0.0
0.0 -0.0017876209561018825 0.0
0.0 -0.0017876706528018767 0.0
0.0 -0.0017876289863396609 0.0
0.0 -0.0017876616036164444 0.0
0.0 -0.0017876390404201153 0.0
0.0 -0.0017876505940071716 0.0
0.0 -0.0017876509045266335 0.0
0.0 -0.0017876380264822986 0.0
0.0 -0.0017876639583612587 0.0
0.0 -0.0017876247642527984 0.0
0.0 -0.0017876770775879388 0.0
0.0 -0.0017876122006384066 0.0
0.0 -0.0017876886062349962 0.0
0.0 -0.0017876022297049468 0.0
0.0 -0.0017876964588633213 0.0
0.0 -0.0017875970559504462 0.0
0.0 -0.0017876984122268034 0.0
0.0 -0.0017875987923097686 0.0
0.0 -0.0017876926199170324 0.0
0.0 -0.0017876088399439065 0.0
0.0 -0.0017876783188875884 0.0
0.0 -0.0017876271293205208 0.0
0.0 -0.001787656590395318 0.0
0.0 -0.0017876514246298082 0.0
0.0 -0.0017876309071326265 0.0
0.0 -0.0017876770201736623 0.0
0.0 -0.0017876070929915217 0.0
0.0 -0.0017876972200037442 0.0
0.0 -0.0017875923265440387 0.0
0.0 -0.0017877048946859603 0.0
0.0 -0.0017875930323418823 0.0