# vtk DataFile Version 2.0
data_432
ASCII
DATASET UNSTRUCTURED_GRID
POINTS 804 float
0.0 0.0 0.0
0.1 0.0 0.0
0.1 20.0 0.0
0.0 20.0 0.0
0.0 0.0 -0.1
0.1 0.0 -0.1
0.1 20.0 -0.1
0.0 20.0 -0.1
0.1 0.09999999999992462 0.0
0.1 0.1999999999998517 0.0
0.1 0.2999999999997818 0.0
0.1 0.399999999999712 0.0
0.1 0.4999999999996377 0.0
0.1 0.5999999999995541 0.0
0.1 0.6999999999994495 0.0
0.1 0.7999999999993355 0.0
0.1 0.8999999999992101 0.0
0.1 0.999999999999102 0.0
0.1 1.099999999999006 0.0
0.1 1.199999999998936 0.0
0.1 1.299999999998867 0.0
0.1 1.399999999998797 0.0
0.1 1.499999999998727 0.0
0.1 1.599999999998657 0.0
0.1 1.699999999998587 0.0
0.1 1.799999999998517 0.0
0.1 1.899999999998447 0.0
0.1 1.999999999998378 0.0
0.1 2.099999999998308 0.0
0.1 2.199999999998238 0.0
0.1 2.299999999998168 0.0
0.1 2.399999999998067 0.0
0.1 2.499999999997942 0.0
0.1 2.599999999997706 0.0
0.1 2.699999999997444 0.0
0.1 2.799999999997153 0.0
0.1 2.899999999996861 0.0
0.1 2.999999999996569 0.0
0.1 3.099999999996277 0.0
0.1 3.199999999995984 0.0
0.1 3.299999999995693 0.0
0.1 3.399999999995401 0.0
0.1 3.499999999995108 0.0
0.1 3.599999999994816 0.0
0.1 3.699999999994525 0.0
0.1 3.799999999994232 0.0
0.1 3.89999999999394 0.0
0.1 3.999999999993648 0.0
0.1 4.099999999993356 0.0
0.1 4.199999999993064 0.0
0.1 4.299999999992772 0.0
0.1 4.399999999992479 0.0
0.1 4.499999999992188 0.0
0.1 4.599999999991895 0.0
0.1 4.699999999991603 0.0
0.1 4.799999999991311 0.0
0.1 4.899999999991019 0.0
0.1 4.999999999990727 0.0
0.1 5.099999999990436 0.0
0.1 5.199999999990144 0.0
0.1 5.299999999989851 0.0
0.1 5.399999999989559 0.0
0.1 5.499999999989267 0.0
0.1 5.599999999988975 0.0
0.1 5.699999999988683 0.0
0.1 5.799999999988391 0.0
0.1 5.899999999988099 0.0
0.1 5.999999999987806 0.0
0.1 6.099999999987515 0.0
0.1 6.199999999987222 0.0
0.1 6.299999999986929 0.0
0.1 6.399999999986638 0.0
0.1 6.499999999986345 0.0
0.1 6.599999999986054 0.0
0.1 6.699999999985762 0.0
0.1 6.79999999998547 0.0
0.1 6.899999999985177 0.0
0.1 6.999999999984885 0.0
0.1 7.099999999984593 0.0
0.1 7.199999999984302 0.0
0.1 7.299999999984009 0.0
0.1 7.399999999983717 0.0
0.1 7.499999999983426 0.0
0.1 7.599999999983132 0.0
0.1 7.699999999982841 0.0
0.1 7.799999999982549 0.0
0.1 7.899999999982256 0.0
0.1 7.999999999982034 0.0
0.1 8.099999999981964 0.0
0.1 8.199999999982062 0.0
0.1 8.299999999982214 0.0
0.1 8.399999999982366 0.0
0.1 8.499999999982517 0.0
0.1 8.59999999998267 0.0
0.1 8.699999999982822 0.0
0.1 8.799999999982973 0.0
0.1 8.899999999983125 0.0
0.1 8.999999999983277 0.0
0.1 9.09999999998343 0.0
0.1 9.19999999998358 0.0
0.1 9.299999999983733 0.0
0.1 9.399999999983885 0.0
0.1 9.499999999984038 0.0
0.1 9.599999999984188 0.0
0.1 9.69999999998434 0.0
0.1 9.799999999984493 0.0
0.1 9.899999999984646 0.0
0.1 9.999999999984798 0.0
0.1 10.09999999998495 0.0
0.1 10.1999999999851 0.0
0.1 10.29999999998525 0.0
0.1 10.39999999998541 0.0
0.1 10.49999999998556 0.0
0.1 10.59999999998571 0.0
0.1 10.69999999998586 0.0
0.1 10.79999999998601 0.0
0.1 10.89999999998616 0.0
0.1 10.99999999998632 0.0
0.1 11.09999999998647 0.0
0.1 11.19999999998662 0.0
0.1 11.29999999998677 0.0
0.1 11.39999999998693 0.0
0.1 11.49999999998708 0.0
0.1 11.59999999998723 0.0
0.1 11.69999999998738 0.0
0.1 11.79999999998754 0.0
0.1 11.89999999998769 0.0
0.1 11.99999999998784 0.0
0.1 12.09999999998799 0.0
0.1 12.19999999998814 0.0
0.1 12.2999999999883 0.0
0.1 12.39999999998845 0.0
0.1 12.4999999999886 0.0
0.1 12.59999999998875 0.0
0.1 12.6999999999889 0.0
0.1 12.79999999998905 0.0
0.1 12.89999999998921 0.0
0.1 12.99999999998936 0.0
0.1 13.09999999998951 0.0
0.1 13.19999999998966 0.0
0.1 13.29999999998982 0.0
0.1 13.39999999998997 0.0
0.1 13.49999999999012 0.0
0.1 13.59999999999027 0.0
0.1 13.69999999999042 0.0
0.1 13.79999999999057 0.0
0.1 13.89999999999073 0.0
0.1 13.99999999999088 0.0
0.1 14.09999999999103 0.0
0.1 14.19999999999118 0.0
0.1 14.29999999999134 0.0
0.1 14.39999999999149 0.0
0.1 14.49999999999164 0.0
0.1 14.59999999999179 0.0
0.1 14.69999999999194 0.0
0.1 14.7999999999921 0.0
0.1 14.89999999999225 0.0
0.1 14.9999999999924 0.0
0.1 15.09999999999255 0.0
0.1 15.1999999999927 0.0
0.1 15.29999999999285 0.0
0.1 15.39999999999301 0.0
0.1 15.49999999999316 0.0
0.1 15.59999999999331 0.0
0.1 15.69999999999346 0.0
0.1 15.79999999999362 0.0
0.1 15.89999999999377 0.0
0.1 15.99999999999392 0.0
0.1 16.09999999999407 0.0
0.1 16.19999999999422 0.0
0.1 16.29999999999437 0.0
0.1 16.39999999999453 0.0
0.1 16.49999999999468 0.0
0.1 16.59999999999483 0.0
0.1 16.69999999999498 0.0
0.1 16.79999999999514 0.0
0.1 16.89999999999528 0.0
0.1 16.99999999999544 0.0
0.1 17.09999999999559 0.0
0.1 17.19999999999574 0.0
0.1 17.29999999999589 0.0
0.1 17.39999999999605 0.0
0.1 17.4999999999962 0.0
0.1 17.59999999999635 0.0
0.1 17.6999999999965 0.0
0.1 17.79999999999665 0.0
0.1 17.89999999999681 0.0
0.1 17.99999999999696 0.0
0.1 18.09999999999711 0.0
0.1 18.19999999999726 0.0
0.1 18.29999999999742 0.0
0.1 18.39999999999757 0.0
0.1 18.49999999999772 0.0
0.1 18.59999999999787 0.0
0.1 18.69999999999802 0.0
0.1 18.79999999999818 0.0
0.1 18.89999999999833 0.0
0.1 18.99999999999848 0.0
0.1 19.09999999999863 0.0
0.1 19.19999999999878 0.0
0.1 19.29999999999894 0.0
0.1 19.39999999999909 0.0
0.1 19.49999999999924 0.0
0.1 19.59999999999939 0.0
0.1 19.69999999999955 0.0
0.1 19.7999999999997 0.0
0.1 19.89999999999985 0.0
0.0 19.9 0.0
0.0 19.8 0.0
0.0 19.7 0.0
0.0 19.6 0.0
0.0 19.5 0.0
0.0 19.4 0.0
0.0 19.3 0.0
0.0 19.2 0.0
0.0 19.1 0.0
0.0 19.0 0.0
0.0 18.9 0.0
0.0 18.8 0.0
0.0 18.7 0.0
0.0 18.6 0.0
0.0 18.5 0.0
0.0 18.4 0.0
0.0 18.3 0.0
0.0 18.2 0.0
0.0 18.1 0.0
0.0 18.0 0.0
0.0 17.9 0.0
0.0 17.8 0.0
0.0 17.7 0.0
0.0 17.6 0.0
0.0 17.5 0.0
0.0 17.4 0.0
0.0 17.3 0.0
0.0 17.2 0.0
0.0 17.09999999999999 0.0
0.0 17.0 0.0
0.0 16.9 0.0
0.0 16.8 0.0
0.0 16.7 0.0
0.0 16.59999999999999 0.0
0.0 16.49999999999999 0.0
0.0 16.4 0.0
0.0 16.29999999999999 0.0
0.0 16.2 0.0
0.0 16.09999999999999 0.0
0.0 15.99999999999999 0.0
0.0 15.89999999999999 0.0
0.0 15.79999999999999 0.0
0.0 15.69999999999999 0.0
0.0 15.59999999999999 0.0
0.0 15.49999999999999 0.0
0.0 15.39999999999999 0.0
0.0 15.29999999999999 0.0
0.0 15.19999999999999 0.0
0.0 15.09999999999999 0.0
0.0 14.99999999999999 0.0
0.0 14.89999999999999 0.0
0.0 14.79999999999999 0.0
0.0 14.69999999999999 0.0
0.0 14.59999999999999 0.0
0.0 14.49999999999999 0.0
0.0 14.39999999999999 0.0
0.0 14.29999999999999 0.0
0.0 14.19999999999999 0.0
0.0 14.09999999999999 0.0
0.0 13.99999999999999 0.0
0.0 13.89999999999999 0.0
0.0 13.79999999999999 0.0
0.0 13.69999999999999 0.0
0.0 13.59999999999999 0.0
0.0 13.49999999999999 0.0
0.0 13.39999999999999 0.0
0.0 13.29999999999999 0.0
0.0 13.19999999999999 0.0
0.0 13.09999999999999 0.0
0.0 12.99999999999999 0.0
0.0 12.89999999999999 0.0
0.0 12.79999999999999 0.0
0.0 12.69999999999999 0.0
0.0 12.59999999999999 0.0
0.0 12.49999999999999 0.0
0.0 12.39999999999999 0.0
0.0 12.29999999999999 0.0
0.0 12.19999999999999 0.0
0.0 12.09999999999999 0.0
0.0 11.99999999999999 0.0
0.0 11.89999999999999 0.0
0.0 11.79999999999999 0.0
0.0 11.69999999999999 0.0
0.0 11.59999999999999 0.0
0.0 11.49999999999999 0.0
0.0 11.39999999999999 0.0
0.0 11.29999999999999 0.0
0.0 11.19999999999999 0.0
0.0 11.09999999999999 0.0
0.0 10.99999999999999 0.0
0.0 10.89999999999999 0.0
0.0 10.79999999999999 0.0
0.0 10.69999999999999 0.0
0.0 10.59999999999999 0.0
0.0 10.49999999999999 0.0
0.0 10.39999999999999 0.0
0.0 10.29999999999999 0.0
0.0 10.19999999999999 0.0
0.0 10.09999999999999 0.0
0.0 9.999999999999993 0.0
0.0 9.899999999999993 0.0
0.0 9.799999999999994 0.0
0.0 9.699999999999992 0.0
0.0 9.599999999999993 0.0
0.0 9.499999999999993 0.0
0.0 9.399999999999993 0.0
0.0 9.299999999999995 0.0
0.0 9.199999999999996 0.0
0.0 9.099999999999994 0.0
0.0 8.999999999999995 0.0
0.0 8.899999999999995 0.0
0.0 8.799999999999994 0.0
0.0 8.699999999999994 0.0
0.0 8.599999999999994 0.0
0.0 8.499999999999995 0.0
0.0 8.399999999999995 0.0
0.0 8.299999999999994 0.0
0.0 8.199999999999994 0.0
0.0 8.099999999999994 0.0
0.0 7.999999999999993 0.0
0.0 7.899999999999995 0.0
0.0 7.799999999999995 0.0
0.0 7.699999999999996 0.0
0.0 7.599999999999996 0.0
0.0 7.499999999999996 0.0
0.0 7.399999999999995 0.0
0.0 7.299999999999995 0.0
0.0 7.199999999999996 0.0
0.0 7.099999999999994 0.0
0.0 6.999999999999995 0.0
0.0 6.899999999999995 0.0
0.0 6.799999999999995 0.0
0.0 6.699999999999996 0.0
0.0 6.599999999999994 0.0
0.0 6.499999999999995 0.0
0.0 6.399999999999997 0.0
0.0 6.299999999999997 0.0
0.0 6.199999999999996 0.0
0.0 6.099999999999996 0.0
0.0 5.999999999999996 0.0
0.0 5.899999999999997 0.0
0.0 5.799999999999997 0.0
0.0 5.699999999999996 0.0
0.0 5.599999999999996 0.0
0.0 5.499999999999996 0.0
0.0 5.399999999999995 0.0
0.0 5.299999999999995 0.0
0.0 5.199999999999996 0.0
0.0 5.099999999999996 0.0
0.0 4.999999999999998 0.0
0.0 4.899999999999999 0.0
0.0 4.799999999999997 0.0
0.0 4.699999999999998 0.0
0.0 4.599999999999998 0.0
0.0 4.499999999999996 0.0
0.0 4.399999999999997 0.0
0.0 4.299999999999997 0.0
0.0 4.199999999999998 0.0
0.0 4.099999999999998 0.0
0.0 3.999999999999996 0.0
0.0 3.899999999999999 0.0
0.0 3.799999999999997 0.0
0.0 3.699999999999996 0.0
0.0 3.599999999999998 0.0
0.0 3.5 0.0
0.0 3.399999999999999 0.0
0.0 3.299999999999997 0.0
0.0 3.199999999999999 0.0
0.0 3.099999999999998 0.0
0.0 3.0 0.0
0.0 2.899999999999999 0.0
0.0 2.799999999999997 0.0
0.0 2.699999999999999 0.0
0.0 2.599999999999998 0.0
0.0 2.499999999999996 0.0
0.0 2.399999999999999 0.0
0.0 2.299999999999997 0.0
0.0 2.199999999999999 0.0
0.0 2.100000000000001 0.0
0.0 2.0 0.0
0.0 1.899999999999999 0.0
0.0 1.800000000000001 0.0
0.0 1.699999999999999 0.0
0.0 1.599999999999998 0.0
0.0 1.5 0.0
0.0 1.399999999999999 0.0
0.0 1.299999999999997 0.0
0.0 1.199999999999999 0.0
0.0 1.099999999999998 0.0
0.0 1.0 0.0
0.0 0.8999999999999986 0.0
0.0 0.8000000000000007 0.0
0.0 0.6999999999999993 0.0
0.0 0.6000000000000014 0.0
0.0 0.5 0.0
0.0 0.3999999999999986 0.0
0.0 0.3000000000000007 0.0
0.0 0.1999999999999993 0.0
[...]
POINT_DATA 804
VECTORS displacement double
0.0 0.0 0.0
0.0 0.0 0.0
0.0 -0.0017865180119113594 0.0
0.0 -0.0017865180119113339 0.0
0.0 0.0 0.0
0.0 0.0 0.0
0.0 -0.0017865180119113436 0.0
0.0 -0.001786518011911349 0.0
0.0 1.3750738236810552e-09 0.0
0.0 -1.9525091078934893e-09 0.0
0.0 1.3331618893180424e-09 0.0
0.0 -2.3579796538031424e-14 0.0
0.0 -1.37622367008009e-09 0.0
0.0 1.7809735327417395e-09 0.0
0.0 -1.206240301361046e-09 0.0
0.0 -2.2279983103968855e-10 0.0
0.0 1.279659845602388e-09 0.0
0.0 -1.6196832925512344e-09 0.0
0.0 6.604865895980222e-10 0.0
0.0 5.048630234954796e-10 0.0
0.0 -1.4883413069199222e-09 0.0
0.0 1.0656851010567391e-09 0.0
0.0 -3.324395185417361e-11 0.0
0.0 -1.40870539191171e-09 0.0
0.0 1.4986776733155878e-09 0.0
0.0 -6.398647312635192e-10 0.0
0.0 -1.3470905677982574e-09 0.0
0.0 2.2480657843516594e-09 0.0
0.0 -1.9211069742113388e-09 0.0
0.0 -5.100813956457332e-10 0.0
0.0 2.616128863190825e-09 0.0
0.0 -3.627193808364513e-09 0.0
0.0 1.537513483611643e-09 0.0
0.0 1.5430770659710204e-09 0.0
0.0 -4.477152639371304e-09 0.0
0.0 3.883270323327818e-09 0.0
0.0 -9.082768549990165e-10 0.0
0.0 -3.579615060169185e-09 0.0
0.0 5.032439928625624e-09 0.0
0.0 -3.2849043794539584e-09 0.0
0.0 -1.7160858980405681e-09 0.0
0.0 4.768809435782496e-09 0.0
0.0 -4.476857821994555e-09 0.0
0.0 -4.29614926504621e-10 0.0
0.0 4.464006126573761e-09 0.0
0.0 -5.182629705250219e-09 0.0
0.0 9.0416832813932e-11 0.0
0.0 5.064769362634491e-09 0.0
0.0 -6.71738727928541e-09 0.0
0.0 1.0708863859598715e-09 0.0
0.0 5.766462381572419e-09 0.0
0.0 -8.833199189870748e-09 0.0
0.0 2.820226811542873e-09 0.0
0.0 5.739181869359691e-09 0.0
0.0 -1.026073411845839e-08 0.0
0.0 3.8962256904700734e-09 0.0
0.0 6.078797524045775e-09 0.0
0.0 -1.1191918187447355e-08 0.0
0.0 3.4167120839509145e-09 0.0
0.0 8.292470584244493e-09 0.0
0.0 -1.2999101224543222e-08 0.0
0.0 2.1939797770000125e-09 0.0
0.0 1.1931983376668147e-08 0.0
0.0 -1.5273640743339167e-08 0.0
0.0 1.404282083207661e-10 0.0
0.0 1.5970807851900848e-08 0.0
0.0 -1.5707637504358477e-08 0.0
0.0 -5.031989042392045e-09 0.0
0.0 2.0872864341610063e-08 0.0
0.0 -1.2804324790677024e-08 0.0
0.0 -1.4646421711572541e-08 0.0
0.0 2.5932649729654058e-08 0.0
0.0 -5.273353449472029e-09 0.0
0.0 -2.6992082560594304e-08 0.0
0.0 2.6013588766318987e-08 0.0
0.0 1.0173325284387562e-08 0.0
0.0 -3.8383763070064423e-08 0.0
0.0 1.3907914121069215e-08 0.0
0.0 3.4294475771508775e-08 0.0
0.0 -4.0637594599169236e-08 0.0
0.0 -1.513726462224538e-08 0.0
0.0 5.649966856130466e-08 0.0
0.0 -1.8128451184665842e-08 0.0
0.0 -5.7134370652528546e-08 0.0
0.0 5.206299019499627e-08 0.0
0.0 3.9200063397037056e-08 0.0
0.0 -8.405358312150325e-08 0.0
0.0 -7.120347777903459e-09 0.0
0.0 1.0376575227826407e-07 0.0
0.0 -3.874008705898622e-08 0.0
0.0 -1.1110328085526507e-07 0.0
0.0 8.856541402284136e-08 0.0
0.0 1.0389021471239623e-07 0.0
0.0 -1.4527445724975642e-07 0.0
0.0 -8.637580397372392e-08 0.0
0.0 2.0325443267560143e-07 0.0
0.0 5.8331600039728883e-08 0.0
0.0 -2.693622454932268e-07 0.0
0.0 -2.936190955659048e-08 0.0
0.0 3.4742392704153953e-07 0.0
0.0 4.3268880519298003e-10 0.0
0.0 -4.5098633099582224e-07 0.0
0.0 9.849906781386635e-09 0.0
0.0 5.924476904273339e-07 0.0
0.0 1.8156156860911216e-08 0.0
0.0 -7.934409199865583e-07 0.0
0.0 -1.3876009727587846e-07 0.0
0.0 1.0564539209045788e-06 0.0
0.0 4.4368026922252454e-07 0.0
0.0 -1.3514429196042992e-06 0.0
0.0 -1.0954958840455992e-06 0.0
0.0 1.5023782139937637e-06 0.0
0.0 2.2930586720692413e-06 0.0
0.0 -1.0294649873053645e-06 0.0
0.0 -4.084649863925244e-06 0.0
0.0 -1.1257140217668467e-06 0.0
0.0 5.628205318717025e-06 0.0
0.0 6.4753372150183015e-06 0.0
0.0 -3.500285731534029e-06 0.0
0.0 -1.479380738481273e-05 0.0
0.0 -1.0397177860395039e-05 0.0
0.0 1.4582580040894454e-05 0.0
0.0 3.900646544566799e-05 0.0
0.0 2.175602119747813e-05 0.0
0.0 -7.562220930628845e-05 0.0
0.0 -0.0002663770152955079 0.0
0.0 -0.0005311054644662729 0.0
0.0 -0.0008279166144136624 0.0
0.0 -0.0011112970296312929 0.0
0.0 -0.0013481140202154902 0.0
0.0 -0.001524192659487214 0.0
0.0 -0.0016418896151330154 0.0
0.0 -0.001713089919599553 0.0
0.0 -0.0017522327675060637 0.0
0.0 -0.0017718284748195676 0.0
0.0 -0.0017807642077327752 0.0
0.0 -0.0017844695591842268 0.0
0.0 -0.0017858610176659554 0.0
0.0 -0.0017863312465762377 0.0
0.0 -0.0017864719466669813 0.0
0.0 -0.0017865090336583078 0.0
0.0 -0.001786516623863128 0.0
0.0 -0.0017865182817900925 0.0
0.0 -0.0017865179866064782 0.0
0.0 -0.0017865183072832051 0.0
0.0 -0.0017865179720280666 0.0
0.0 -0.001786518241194348 0.0
0.0 -0.0017865180261883605 0.0
0.0 -0.0017865181791774773 0.0
0.0 -0.0017865180951632102 0.0
0.0 -0.001786518112634822 0.0
0.0 -0.0017865181638513643 0.0
0.0 -0.001786518050825308 0.0
0.0 -0.0017865182235879775 0.0
0.0 -0.001786518001200669 0.0
0.0 -0.0017865182683941044 0.0
0.0 -0.0017865179682713852 0.0
0.0 -0.001786518295222393 0.0
0.0 -0.0017865179536929998 0.0
0.0 -0.001786518303693873 0.0
0.0 -0.0017865179567145607 0.0
0.0 -0.0017865182955219886 0.0
0.0 -0.0017865179748379767 0.0
0.0 -0.001786518273809928 0.0
0.0 -0.0017865180045289466 0.0
0.0 -0.001786518242360303 0.0
0.0 -0.0017865180418637596 0.0
0.0 -0.0017865182050891251 0.0
0.0 -0.001786518083043265 0.0
0.0 -0.0017865181655900108 0.0
0.0 -0.0017865181247480422 0.0
0.0 -0.001786518126858236 0.0
0.0 -0.0017865181643393299 0.0
0.0 -0.0017865180911590336 0.0
0.0 -0.0017865181999293326 0.0
0.0 -0.0017865180600101168 0.0
0.0 -0.0017865182303541361 0.0
0.0 -0.0017865180342446344 0.0
0.0 -0.0017865182550832715 0.0
0.0 -0.0017865180141217528 0.0
0.0 -0.0017865182740958952 0.0
0.0 -0.0017865179994575658 0.0
0.0 -0.00178651828774756 0.0
0.0 -0.001786517989756524 0.0
0.0 -0.0017865182966440296 0.0
0.0 -0.001786517984329949 0.0
0.0 -0.0017865183015322813 0.0
0.0 -0.001786517982394372 0.0
0.0 -0.0017865183032133298 0.0
0.0 -0.0017865179831474264 0.0
0.0 -0.0017865183024775146 0.0
0.0 -0.0017865179858216752 0.0
0.0 -0.0017865183000607208 0.0
0.0 -0.0017865179897194594 0.0
0.0 -0.0017865182966177102 0.0
0.0 -0.001786517994231962 0.0
0.0 -0.0017865182927093862 0.0
0.0 -0.0017865179988468909 0.0
0.0 -0.0017865182887996346 0.0
0.0 -0.001786518003147979 0.0
0.0 -0.001786518285258446 0.0
0.0 -0.0017865180068098 0.0
0.0 -0.0017865182823686284 0.0
0.0 -0.0017865180095902817 0.0
0.0 -0.0017865182803334368 0.0
0.0 -0.0017865180113231162 0.0
0.0 -0.0017865182792838204 0.0
0.0 -0.0017865182792838148 0.0
0.0 -0.0017865180113231297 0.0
0.0 -0.001786518280333432 0.0
0.0 -0.0017865180095902838 0.0
0.0 -0.0017865182823686345 0.0
0.0 -0.0017865180068097845 0.0
0.0 -0.0017865182852584577 0.0
0.0 -0.0017865180031479643 0.0
0.0 -0.0017865182887996372 0.0
0.0 -0.0017865179988468965 0.0
0.0 -0.0017865182927094014 0.0
0.0 -0.0017865179942319692 0.0
0.0 -0.0017865182966177076 0.0
0.0 -0.0017865179897194703 0.0
0.0 -0.0017865183000607197 0.0
0.0 -0.0017865179858216971 0.0
0.0 -0.0017865183024775304 0.0
0.0 -0.0017865179831474288 0.0
0.0 -0.0017865183032133231 0.0
0.0 -0.0017865179823943773 0.0
0.0 -0.0017865183015323004 0.0
0.0 -0.0017865179843299577 0.0
0.0 -0.0017865182966440368 0.0
0.0 -0.0017865179897565205 0.0
0.0 -0.0017865182877475523 0.0
0.0 -0.0017865179994575673 0.0
0.0 -0.0017865182740959022 0.0
0.0 -0.00178651801412177 0.0
0.0 -0.0017865182550832624 0.0
0.0 -0.0017865180342446557 0.0
0.0 -0.0017865182303541452 0.0
0.0 -0.0017865180600101238 0.0
0.0 -0.0017865181999293387 0.0
0.0 -0.0017865180911590336 0.0
0.0 -0.0017865181643393342 0.0
0.0 -0.0017865181268582383 0.0
0.0 -0.001786518124748056 0.0
0.0 -0.0017865181655899972 0.0
0.0 -0.0017865180830432688 0.0
0.0 -0.0017865182050891247 0.0
0.0 -0.0017865180418637633 0.0
0.0 -0.0017865182423602948 0.0
0.0 -0.0017865180045289475 0.0
0.0 -0.001786518273809917 0.0
0.0 -0.001786517974837956 0.0
0.0 -0.0017865182955219914 0.0
0.0 -0.001786517956714547 0.0
0.0 -0.0017865183036938727 0.0
0.0 -0.0017865179536930035 0.0
0.0 -0.001786518295222379 0.0
0.0 -0.0017865179682713878 0.0
0.0 -0.0017865182683940884 0.0
0.0 -0.0017865180012006634 0.0
0.0 -0.0017865182235879825 0.0
0.0 -0.0017865180508253125 0.0
0.0 -0.0017865181638513532 0.0
0.0 -0.0017865181126348211 0.0
0.0 -0.0017865180951632063 0.0
0.0 -0.001786518179177491 0.0
0.0 -0.0017865180261883585 0.0
0.0 -0.0017865182411943442 0.0
0.0 -0.0017865179720280592 0.0
0.0 -0.0017865183072831984 0.0
0.0 -0.0017865179866064838 0.0
0.0 -0.0017865182817900917 0.0
0.0 -0.001786516623863129 0.0
0.0 -0.0017865090336583215 0.0
0.0 -0.0017864719466669915 0.0
0.0 -0.0017863312465762789 0.0
0.0 -0.001785861017666032 0.0
0.0 -0.001784469559184467 0.0
0.0 -0.0017807642077333895 0.0
0.0 -0.0017718284748210282 0.0
0.0 -0.0017522327675091492 0.0
0.0 -0.0017130899196055648 0.0
0.0 -0.0016418896151436306 0.0
0.0 -0.0015241926595042008 0.0
0.0 -0.0013481140202400614 0.0
0.0 -0.0011112970296629663 0.0
0.0 -0.0008279166144497183 0.0
0.0 -0.0005311054645017747 0.0
0.0 -0.0002663770153245738 0.0
0.0 -7.562220932455602e-05 0.0
0.0 2.17560211907611e-05 0.0
0.0 3.900646544706617e-05 0.0
0.0 1.4582580044858855e-05 0.0
0.0 -1.0397177858282634e-05 0.0
0.0 -1.4793807385584602e-05 0.0
0.0 -3.500285733329945e-06 0.0
0.0 6.475337214349878e-06 0.0
0.0 5.628205319456567e-06 0.0
0.0 -1.1257140209239305e-06 0.0
0.0 -4.084649864000342e-06 0.0
0.0 -1.0294649879146313e-06 0.0
0.0 2.2930586718627956e-06 0.0
0.0 1.5023782143470577e-06 0.0
0.0 -1.095495883769794e-06 0.0
0.0 -1.351442919793821e-06 0.0
0.0 4.43680268968638e-07 0.0
0.0 1.0564539209853599e-06 0.0
0.0 -1.387600970699856e-07 0.0
0.0 -7.934409200194e-07 0.0
0.0 1.815615670603703e-08 0.0
0.0 5.92447690436432e-07 0.0
0.0 9.849906909631076e-09 0.0
0.0 -4.509863309989337e-07 0.0
0.0 4.326887088850901e-10 0.0
0.0 3.474239270491458e-07 0.0
0.0 -2.936190947999215e-08 0.0
0.0 -2.6936224550853737e-07 0.0
0.0 5.833159997677063e-08 0.0
0.0 2.0325443269495444e-07 0.0
0.0 -8.637580392788526e-08 0.0
0.0 -1.452744572769694e-07 0.0
0.0 1.0389021468342214e-07 0.0
0.0 8.856541405403319e-08 0.0
0.0 -1.1110328084309411e-07 0.0
0.0 -3.8740087092073414e-08 0.0
0.0 1.0376575227437138e-07 0.0
0.0 -7.1203477504455e-09 0.0
0.0 -8.405358313166122e-08 0.0
0.0 3.920006337260975e-08 0.0
0.0 5.206299020939223e-08 0.0
0.0 -5.713437063743152e-08 0.0
0.0 -1.81284512007825e-08 0.0
0.0 5.6499668563145504e-08 0.0
0.0 -1.5137264608714225e-08 0.0
0.0 -4.063759460694655e-08 0.0
0.0 3.4294475764057016e-08 0.0
0.0 1.3907914130112716e-08 0.0
0.0 -3.838376306990427e-08 0.0
0.0 1.0173325276621182e-08 0.0
0.0 2.6013588773209372e-08 0.0
0.0 -2.6992082557132583e-08 0.0
0.0 -5.273353459004086e-09 0.0
0.0 2.5932649730392257e-08 0.0
0.0 -1.4646421705920795e-08 0.0
0.0 -1.2804324796761501e-08 0.0
0.0 2.0872864339398023e-08 0.0
0.0 -5.0319890392111526e-09 0.0
0.0 -1.570763750751846e-08 0.0
0.0 1.597080784876755e-08 0.0
0.0 1.4042821091804187e-10 0.0
0.0 -1.527364074334046e-08 0.0
0.0 1.193198337337728e-08 0.0
0.0 2.193979778686808e-09 0.0
0.0 -1.2999101223972818e-08 0.0
0.0 8.292470583633883e-09 0.0
0.0 3.4167120864649794e-09 0.0
0.0 -1.1191918187922517e-08 0.0
0.0 6.078797522941281e-09 0.0
0.0 3.8962256925706605e-09 0.0
0.0 -1.0260734116844037e-08 0.0
0.0 5.739181868673901e-09 0.0
0.0 2.8202268127699606e-09 0.0
0.0 -8.833199188966758e-09 0.0
0.0 5.766462381240662e-09 0.0
0.0 1.0708863868885209e-09 0.0
0.0 -6.717387279710808e-09 0.0
0.0 5.064769363156306e-09 0.0
0.0 9.04168343330664e-11 0.0
0.0 -5.182629705565905e-09 0.0
0.0 4.4640061263728594e-09 0.0
0.0 -4.296149263156769e-10 0.0
0.0 -4.476857822145944e-09 0.0
0.0 4.7688094363804936e-09 0.0
0.0 -1.716085897165764e-09 0.0
0.0 -3.284904378946733e-09 0.0
0.0 5.032439928782161e-09 0.0
0.0 -3.5796150597207624e-09 0.0
0.0 -9.082768535712295e-10 0.0
0.0 3.8832703240317186e-09 0.0
0.0 -4.477152639842629e-09 0.0
0.0 1.5430770649594965e-09 0.0
0.0 1.5375134831401798e-09 0.0
0.0 -3.62719380806574e-09 0.0
0.0 2.6161288631928353e-09 0.0
0.0 -5.10081395314943e-10 0.0
0.0 -1.9211069735945797e-09 0.0
0.0 2.2480657850230645e-09 0.0
0.0 -1.3470905670528994e-09 0.0
0.0 -6.398647308134772e-10 0.0
0.0 1.498677673067597e-09 0.0
0.0 -1.4087053933348381e-09 0.0
0.0 -3.324395224052999e-11 0.0
0.0 1.0656851014980402e-09 0.0
0.0 -1.4883413064315458e-09 0.0
0.0 5.048630235803019e-10 0.0
0.0 6.604865892412843e-10 0.0
0.0 -1.619683292543071e-09 0.0
0.0 1.2796598459629531e-09 0.0
0.0 -2.2279982992548133e-10 0.0
0.0 -1.2062403005874418e-09 0.0
0.0 1.7809735320280307e-09 0.0
0.0 -1.376223670750512e-09 0.0
0.0 -2.3579510119407347e-14 0.0
0.0 1.3331618899000453e-09 0.0
0.0 -1.9525091077165533e-09 0.0
0.0 1.375073823692516e-09 0.0
0.0 1.3750738241667122e-09 0.0
0.0 -1.9525091078889886e-09 0.0
0.0 1.3331618894886085e-09 0.0
0.0 -2.357924407760133e-14 0.0
0.0 -1.3762236695469528e-09 0.0
0.0 1.7809735328152003e-09 0.0
0.0 -1.20624030128408e-09 0.0
0.0 -2.2279983101582826e-10 0.0
0.0 1.2796598450803068e-09 0.0
0.0 -1.6196832926065116e-09 0.0
0.0 6.604865896902211e-10 0.0
0.0 5.048630237994963e-10 0.0
0.0 -1.4883413072046204e-09 0.0
0.0 1.065685100806135e-09 0.0
0.0 -3.324395191635066e-11 0.0
0.0 -1.4087053924579615e-09 0.0
0.0 1.4986776732484992e-09 0.0
0.0 -6.39864731184733e-10 0.0
0.0 -1.3470905672131317e-09 0.0
0.0 2.248065784348169e-09 0.0
0.0 -1.921106973996009e-09 0.0
0.0 -5.10081395659685e-10 0.0
0.0 2.616128861840969e-09 0.0
0.0 -3.6271938086259223e-09 0.0
0.0 1.5375134837490594e-09 0.0
0.0 1.5430770651688117e-09 0.0
0.0 -4.477152640012815e-09 0.0
0.0 3.883270324593798e-09 0.0
0.0 -9.082768536646461e-10 0.0
0.0 -3.5796150597554594e-09 0.0
0.0 5.032439929954344e-09 0.0
0.0 -3.2849043787496625e-09 0.0
0.0 -1.7160858988573577e-09 0.0
0.0 4.768809435197597e-09 0.0
0.0 -4.476857821692182e-09 0.0
0.0 -4.2961492565480124e-10 0.0
0.0 4.464006127497169e-09 0.0
0.0 -5.18262970525504e-09 0.0
0.0 9.041683298552147e-11 0.0
0.0 5.064769363970412e-09 0.0
0.0 -6.717387278517757e-09 0.0
0.0 1.0708863857954559e-09 0.0
0.0 5.7664623825711534e-09 0.0
0.0 -8.833199188343585e-09 0.0
0.0 2.820226812517085e-09 0.0
0.0 5.739181869526822e-09 0.0
0.0 -1.0260734118383536e-08 0.0
0.0 3.8962256900808345e-09 0.0
0.0 6.078797525340955e-09 0.0
0.0 -1.1191918187276275e-08 0.0
0.0 3.4167120817604877e-09 0.0
0.0 8.292470583853324e-09 0.0
0.0 -1.2999101224665132e-08 0.0
0.0 2.1939797754975324e-09 0.0
0.0 1.1931983376072003e-08 0.0
0.0 -1.52736407429037e-08 0.0
0.0 1.4042820707677925e-10 0.0
0.0 1.5970807850280716e-08 0.0
0.0 -1.570763750420006e-08 0.0
0.0 -5.031989042979093e-09 0.0
0.0 2.087286434004078e-08 0.0
0.0 -1.2804324792480327e-08 0.0
0.0 -1.46464217113522e-08 0.0
0.0 2.5932649726318482e-08 0.0
0.0 -5.273353452897363e-09 0.0
0.0 -2.6992082561619462e-08 0.0
0.0 2.6013588766033018e-08 0.0
0.0 1.0173325282638032e-08 0.0
0.0 -3.838376307172943e-08 0.0
0.0 1.3907914118077184e-08 0.0
0.0 3.429447576972439e-08 0.0
0.0 -4.063759459819905e-08 0.0
0.0 -1.5137264619875364e-08 0.0
0.0 5.649966856303265e-08 0.0
0.0 -1.812845118703732e-08 0.0
0.0 -5.713437065217593e-08 0.0
0.0 5.2062990194014284e-08 0.0
0.0 3.9200063395902416e-08 0.0
0.0 -8.405358312164798e-08 0.0
0.0 -7.120347774747384e-09 0.0
0.0 1.037657522780764e-07 0.0
0.0 -3.8740087059247565e-08 0.0
0.0 -1.1110328085535896e-07 0.0
0.0 8.856541402233376e-08 0.0
0.0 1.0389021471601337e-07 0.0
0.0 -1.4527445724283301e-07 0.0
0.0 -8.63758039761586e-08 0.0
0.0 2.032544326686155e-07 0.0
0.0 5.8331600037216584e-08 0.0
0.0 -2.693622454960635e-07 0.0
0.0 -2.9361909556485816e-08 0.0
0.0 3.474239270418456e-07 0.0
0.0 4.326888052328852e-10 0.0
0.0 -4.509863309990481e-07 0.0
0.0 9.849906780315858e-09 0.0
0.0 5.924476904253243e-07 0.0
0.0 1.815615686512644e-08 0.0
0.0 -7.934409199883352e-07 0.0
0.0 -1.3876009727495882e-07 0.0
0.0 1.0564539209059654e-06 0.0
0.0 4.4368026921423087e-07 0.0
0.0 -1.351442919614288e-06 0.0
0.0 -1.0954958840408056e-06 0.0
0.0 1.502378213987263e-06 0.0
0.0 2.29305867206908e-06 0.0
0.0 -1.0294649873028007e-06 0.0
0.0 -4.084649863931104e-06 0.0
0.0 -1.1257140217727048e-06 0.0
0.0 5.6282053187150785e-06 0.0
0.0 6.475337215020251e-06 0.0
0.0 -3.5002857315391426e-06 0.0
0.0 -1.4793807384809976e-05 0.0
0.0 -1.0397177860385012e-05 0.0
0.0 1.458258004090358e-05 0.0
0.0 3.9006465445660664e-05 0.0
0.0 2.175602119747577e-05 0.0
0.0 -7.562220930629639e-05 0.0
0.0 -0.00026637701529549793 0.0
0.0 -0.000531105464466276 0.0
0.0 -0.0008279166144136454 0.0
0.0 -0.001111297029631283 0.0
0.0 -0.0013481140202154965 0.0
0.0 -0.0015241926594871942 0.0
0.0 -0.0016418896151330089 0.0
0.0 -0.0017130899195995503 0.0
0.0 -0.0017522327675060473 0.0
0.0 -0.0017718284748195747 0.0
0.0 -0.0017807642077327748 0.0
0.0 -0.001784469559184228 0.0
0.0 -0.0017858610176659567 0.0
0.0 -0.0017863312465762624 0.0
0.0 -0.0017864719466669917 0.0
0.0 -0.0017865090336583059 0.0
0.0 -0.0017865166238631215 0.0
0.0 -0.0017865182817900923 0.0
0.0 -0.0017865179866064793 0.0
0.0 -0.0017865183072831984 0.0
0.0 -0.0017865179720280688 0.0
0.0 -0.0017865182411943487 0.0
0.0 -0.0017865180261883603 0.0
0.0 -0.0017865181791774831 0.0
0.0 -0.0017865180951632089 0.0
0.0 -0.0017865181126348192 0.0
0.0 -0.001786518163851359 0.0
0.0 -0.0017865180508253285 0.0
0.0 -0.0017865182235879897 0.0
0.0 -0.0017865180012006671 0.0
0.0 -0.0017865182683940947 0.0
0.0 -0.0017865179682713765 0.0
0.0 -0.0017865182952223869 0.0
0.0 -0.0017865179536930055 0.0
0.0 -0.0017865183036938732 0.0
0.0 -0.001786517956714537 0.0
0.0 -0.0017865182955219844 0.0
0.0 -0.0017865179748379552 0.0
0.0 -0.0017865182738099317 0.0
0.0 -0.001786518004528957 0.0
0.0 -0.0017865182423602933 0.0
0.0 -0.0017865180418637646 0.0
0.0 -0.0017865182050891164 0.0
0.0 -0.001786518083043258 0.0
0.0 -0.0017865181655900074 0.0
0.0 -0.0017865181247480513 0.0
0.0 -0.0017865181268582407 0.0
0.0 -0.0017865181643393416 0.0
0.0 -0.001786518091159026 0.0
0.0 -0.0017865181999293352 0.0
0.0 -0.0017865180600101147 0.0
0.0 -0.0017865182303541337 0.0
0.0 -0.001786518034244643 0.0
0.0 -0.0017865182550832678 0.0
0.0 -0.0017865180141217675 0.0
0.0 -0.0017865182740958996 0.0
0.0 -0.0017865179994575695 0.0
0.0 -0.001786518287747558 0.0
0.0 -0.001786517989756519 0.0
0.0 -0.0017865182966440433 0.0
0.0 -0.0017865179843299546 0.0
0.0 -0.0017865183015323017 0.0
0.0 -0.0017865179823943849 0.0
0.0 -0.0017865183032133225 0.0
0.0 -0.0017865179831474288 0.0
0.0 -0.0017865183024775345 0.0
0.0 -0.0017865179858216887 0.0
0.0 -0.001786518300060722 0.0
0.0 -0.0017865179897194705 0.0
0.0 -0.0017865182966177067 0.0
0.0 -0.00178651799423197 0.0
0.0 -0.0017865182927093977 0.0
0.0 -0.001786517998846891 0.0
0.0 -0.0017865182887996346 0.0
0.0 -0.0017865180031479836 0.0
0.0 -0.001786518285258456 0.0
0.0 -0.0017865180068097899 0.0
0.0 -0.001786518282368629 0.0
0.0 -0.0017865180095902836 0.0
0.0 -0.0017865182803334277 0.0
0.0 -0.0017865180113231286 0.0
0.0 -0.001786518279283818 0.0
0.0 -0.0017865182792838217 0.0
0.0 -0.0017865180113231132 0.0
0.0 -0.0017865182803334279 0.0
0.0 -0.0017865180095902751 0.0
0.0 -0.0017865182823686395 0.0
0.0 -0.0017865180068097944 0.0
0.0 -0.0017865182852584535 0.0
0.0 -0.0017865180031479825 0.0
0.0 -0.001786518288799638 0.0
0.0 -0.0017865179988468998 0.0
0.0 -0.0017865182927093882 0.0
0.0 -0.0017865179942319542 0.0
0.0 -0.0017865182966177052 0.0
0.0 -0.001786517989719456 0.0
0.0 -0.0017865183000607208 0.0
0.0 -0.001786517985821679 0.0
0.0 -0.0017865183024775235 0.0
0.0 -0.001786517983147433 0.0
0.0 -0.0017865183032133272 0.0
0.0 -0.00178651798239437 0.0
0.0 -0.0017865183015322798 0.0
0.0 -0.0017865179843299533 0.0
0.0 -0.0017865182966440212 0.0
0.0 -0.0017865179897565194 0.0
0.0 -0.0017865182877475514 0.0
0.0 -0.0017865179994575558 0.0
0.0 -0.0017865182740958965 0.0
0.0 -0.0017865180141217539 0.0
0.0 -0.001786518255083271 0.0
0.0 -0.0017865180342446325 0.0
0.0 -0.0017865182303541335 0.0
0.0 -0.0017865180600101114 0.0
0.0 -0.0017865181999293317 0.0
0.0 -0.0017865180911590304 0.0
0.0 -0.0017865181643393234 0.0
0.0 -0.0017865181268582435 0.0
0.0 -0.001786518124748047 0.0
0.0 -0.0017865181655900074 0.0
0.0 -0.001786518083043269 0.0
0.0 -0.0017865182050891347 0.0
0.0 -0.0017865180418637626 0.0
0.0 -0.001786518242360293 0.0
0.0 -0.0017865180045289518 0.0
0.0 -0.001786518273809928 0.0