# vtk DataFile Version 2.0
data_193
ASCII
DATASET UNSTRUCTURED_GRID
POINTS 804 float
0.0 0.0 0.0
0.1 0.0 0.0
0.1 20.0 0.0
0.0 20.0 0.0
0.0 0.0 -0.1
0.1 0.0 -0.1
0.1 20.0 -0.1
0.0 20.0 -0.1
0.1 0.09999999999992462 0.0
0.1 0.1999999999998517 0.0
0.1 0.2999999999997818 0.0
0.1 0.399999999999712 0.0
0.1 0.4999999999996377 0.0
0.1 0.5999999999995541 0.0
0.1 0.6999999999994495 0.0
0.1 0.7999999999993355 0.0
0.1 0.8999999999992101 0.0
0.1 0.999999999999102 0.0
0.1 1.099999999999006 0.0
0.1 1.199999999998936 0.0
0.1 1.299999999998867 0.0
0.1 1.399999999998797 0.0
0.1 1.499999999998727 0.0
0.1 1.599999999998657 0.0
0.1 1.699999999998587 0.0
0.1 1.799999999998517 0.0
0.1 1.899999999998447 0.0
0.1 1.999999999998378 0.0
0.1 2.099999999998308 0.0
0.1 2.199999999998238 0.0
0.1 2.299999999998168 0.0
0.1 2.399999999998067 0.0
0.1 2.499999999997942 0.0
0.1 2.599999999997706 0.0
0.1 2.699999999997444 0.0
0.1 2.799999999997153 0.0
0.1 2.899999999996861 0.0
0.1 2.999999999996569 0.0
0.1 3.099999999996277 0.0
0.1 3.199999999995984 0.0
0.1 3.299999999995693 0.0
0.1 3.399999999995401 0.0
0.1 3.499999999995108 0.0
0.1 3.599999999994816 0.0
0.1 3.699999999994525 0.0
0.1 3.799999999994232 0.0
0.1 3.89999999999394 0.0
0.1 3.999999999993648 0.0
0.1 4.099999999993356 0.0
0.1 4.199999999993064 0.0
0.1 4.299999999992772 0.0
0.1 4.399999999992479 0.0
0.1 4.499999999992188 0.0
0.1 4.599999999991895 0.0
0.1 4.699999999991603 0.0
0.1 4.799999999991311 0.0
0.1 4.899999999991019 0.0
0.1 4.999999999990727 0.0
0.1 5.099999999990436 0.0
0.1 5.199999999990144 0.0
0.1 5.299999999989851 0.0
0.1 5.399999999989559 0.0
0.1 5.499999999989267 0.0
0.1 5.599999999988975 0.0
0.1 5.699999999988683 0.0
0.1 5.799999999988391 0.0
0.1 5.899999999988099 0.0
0.1 5.999999999987806 0.0
0.1 6.099999999987515 0.0
0.1 6.199999999987222 0.0
0.1 6.299999999986929 0.0
0.1 6.399999999986638 0.0
0.1 6.499999999986345 0.0
0.1 6.599999999986054 0.0
0.1 6.699999999985762 0.0
0.1 6.79999999998547 0.0
0.1 6.899999999985177 0.0
0.1 6.999999999984885 0.0
0.1 7.099999999984593 0.0
0.1 7.199999999984302 0.0
0.1 7.299999999984009 0.0
0.1 7.399999999983717 0.0
0.1 7.499999999983426 0.0
0.1 7.599999999983132 0.0
0.1 7.699999999982841 0.0
0.1 7.799999999982549 0.0
0.1 7.899999999982256 0.0
0.1 7.999999999982034 0.0
0.1 8.099999999981964 0.0
0.1 8.199999999982062 0.0
0.1 8.299999999982214 0.0
0.1 8.399999999982366 0.0
0.1 8.499999999982517 0.0
0.1 8.59999999998267 0.0
0.1 8.699999999982822 0.0
0.1 8.799999999982973 0.0
0.1 8.899999999983125 0.0
0.1 8.999999999983277 0.0
0.1 9.09999999998343 0.0
0.1 9.19999999998358 0.0
0.1 9.299999999983733 0.0
0.1 9.399999999983885 0.0
0.1 9.499999999984038 0.0
0.1 9.599999999984188 0.0
0.1 9.69999999998434 0.0
0.1 9.799999999984493 0.0
0.1 9.899999999984646 0.0
0.1 9.999999999984798 0.0
0.1 10.09999999998495 0.0
0.1 10.1999999999851 0.0
0.1 10.29999999998525 0.0
0.1 10.39999999998541 0.0
0.1 10.49999999998556 0.0
0.1 10.59999999998571 0.0
0.1 10.69999999998586 0.0
0.1 10.79999999998601 0.0
0.1 10.89999999998616 0.0
0.1 10.99999999998632 0.0
0.1 11.09999999998647 0.0
0.1 11.19999999998662 0.0
0.1 11.29999999998677 0.0
0.1 11.39999999998693 0.0
0.1 11.49999999998708 0.0
0.1 11.59999999998723 0.0
0.1 11.69999999998738 0.0
0.1 11.79999999998754 0.0
0.1 11.89999999998769 0.0
0.1 11.99999999998784 0.0
0.1 12.09999999998799 0.0
0.1 12.19999999998814 0.0
0.1 12.2999999999883 0.0
0.1 12.39999999998845 0.0
0.1 12.4999999999886 0.0
0.1 12.59999999998875 0.0
0.1 12.6999999999889 0.0
0.1 12.79999999998905 0.0
0.1 12.89999999998921 0.0
0.1 12.99999999998936 0.0
0.1 13.09999999998951 0.0
0.1 13.19999999998966 0.0
0.1 13.29999999998982 0.0
0.1 13.39999999998997 0.0
0.1 13.49999999999012 0.0
0.1 13.59999999999027 0.0
0.1 13.69999999999042 0.0
0.1 13.79999999999057 0.0
0.1 13.89999999999073 0.0
0.1 13.99999999999088 0.0
0.1 14.09999999999103 0.0
0.1 14.19999999999118 0.0
0.1 14.29999999999134 0.0
0.1 14.39999999999149 0.0
0.1 14.49999999999164 0.0
0.1 14.59999999999179 0.0
0.1 14.69999999999194 0.0
0.1 14.7999999999921 0.0
0.1 14.89999999999225 0.0
0.1 14.9999999999924 0.0
0.1 15.09999999999255 0.0
0.1 15.1999999999927 0.0
0.1 15.29999999999285 0.0
0.1 15.39999999999301 0.0
0.1 15.49999999999316 0.0
0.1 15.59999999999331 0.0
0.1 15.69999999999346 0.0
0.1 15.79999999999362 0.0
0.1 15.89999999999377 0.0
0.1 15.99999999999392 0.0
0.1 16.09999999999407 0.0
0.1 16.19999999999422 0.0
0.1 16.29999999999437 0.0
0.1 16.39999999999453 0.0
0.1 16.49999999999468 0.0
0.1 16.59999999999483 0.0
0.1 16.69999999999498 0.0
0.1 16.79999999999514 0.0
0.1 16.89999999999528 0.0
0.1 16.99999999999544 0.0
0.1 17.09999999999559 0.0
0.1 17.19999999999574 0.0
0.1 17.29999999999589 0.0
0.1 17.39999999999605 0.0
0.1 17.4999999999962 0.0
0.1 17.59999999999635 0.0
0.1 17.6999999999965 0.0
0.1 17.79999999999665 0.0
0.1 17.89999999999681 0.0
0.1 17.99999999999696 0.0
0.1 18.09999999999711 0.0
0.1 18.19999999999726 0.0
0.1 18.29999999999742 0.0
0.1 18.39999999999757 0.0
0.1 18.49999999999772 0.0
0.1 18.59999999999787 0.0
0.1 18.69999999999802 0.0
0.1 18.79999999999818 0.0
0.1 18.89999999999833 0.0
0.1 18.99999999999848 0.0
0.1 19.09999999999863 0.0
0.1 19.19999999999878 0.0
0.1 19.29999999999894 0.0
0.1 19.39999999999909 0.0
0.1 19.49999999999924 0.0
0.1 19.59999999999939 0.0
0.1 19.69999999999955 0.0
0.1 19.7999999999997 0.0
0.1 19.89999999999985 0.0
0.0 19.9 0.0
0.0 19.8 0.0
0.0 19.7 0.0
0.0 19.6 0.0
0.0 19.5 0.0
0.0 19.4 0.0
0.0 19.3 0.0
0.0 19.2 0.0
0.0 19.1 0.0
0.0 19.0 0.0
0.0 18.9 0.0
0.0 18.8 0.0
0.0 18.7 0.0
0.0 18.6 0.0
0.0 18.5 0.0
0.0 18.4 0.0
0.0 18.3 0.0
0.0 18.2 0.0
0.0 18.1 0.0
0.0 18.0 0.0
0.0 17.9 0.0
0.0 17.8 0.0
0.0 17.7 0.0
0.0 17.6 0.0
0.0 17.5 0.0
0.0 17.4 0.0
0.0 17.3 0.0
0.0 17.2 0.0
0.0 17.09999999999999 0.0
0.0 17.0 0.0
0.0 16.9 0.0
0.0 16.8 0.0
0.0 16.7 0.0
0.0 16.59999999999999 0.0
0.0 16.49999999999999 0.0
0.0 16.4 0.0
0.0 16.29999999999999 0.0
0.0 16.2 0.0
0.0 16.09999999999999 0.0
0.0 15.99999999999999 0.0
0.0 15.89999999999999 0.0
0.0 15.79999999999999 0.0
0.0 15.69999999999999 0.0
0.0 15.59999999999999 0.0
0.0 15.49999999999999 0.0
0.0 15.39999999999999 0.0
0.0 15.29999999999999 0.0
0.0 15.19999999999999 0.0
0.0 15.09999999999999 0.0
0.0 14.99999999999999 0.0
0.0 14.89999999999999 0.0
0.0 14.79999999999999 0.0
0.0 14.69999999999999 0.0
0.0 14.59999999999999 0.0
0.0 14.49999999999999 0.0
0.0 14.39999999999999 0.0
0.0 14.29999999999999 0.0
0.0 14.19999999999999 0.0
0.0 14.09999999999999 0.0
0.0 13.99999999999999 0.0
0.0 13.89999999999999 0.0
0.0 13.79999999999999 0.0
0.0 13.69999999999999 0.0
0.0 13.59999999999999 0.0
0.0 13.49999999999999 0.0
0.0 13.39999999999999 0.0
0.0 13.29999999999999 0.0
0.0 13.19999999999999 0.0
0.0 13.09999999999999 0.0
0.0 12.99999999999999 0.0
0.0 12.89999999999999 0.0
0.0 12.79999999999999 0.0
0.0 12.69999999999999 0.0
0.0 12.59999999999999 0.0
0.0 12.49999999999999 0.0
0.0 12.39999999999999 0.0
0.0 12.29999999999999 0.0
0.0 12.19999999999999 0.0
0.0 12.09999999999999 0.0
0.0 11.99999999999999 0.0
0.0 11.89999999999999 0.0
0.0 11.79999999999999 0.0
0.0 11.69999999999999 0.0
0.0 11.59999999999999 0.0
0.0 11.49999999999999 0.0
0.0 11.39999999999999 0.0
0.0 11.29999999999999 0.0
0.0 11.19999999999999 0.0
0.0 11.09999999999999 0.0
0.0 10.99999999999999 0.0
0.0 10.89999999999999 0.0
0.0 10.79999999999999 0.0
0.0 10.69999999999999 0.0
0.0 10.59999999999999 0.0
0.0 10.49999999999999 0.0
0.0 10.39999999999999 0.0
0.0 10.29999999999999 0.0
0.0 10.19999999999999 0.0
0.0 10.09999999999999 0.0
0.0 9.999999999999993 0.0
0.0 9.899999999999993 0.0
0.0 9.799999999999994 0.0
0.0 9.699999999999992 0.0
0.0 9.599999999999993 0.0
0.0 9.499999999999993 0.0
0.0 9.399999999999993 0.0
0.0 9.299999999999995 0.0
0.0 9.199999999999996 0.0
0.0 9.099999999999994 0.0
0.0 8.999999999999995 0.0
0.0 8.899999999999995 0.0
0.0 8.799999999999994 0.0
0.0 8.699999999999994 0.0
0.0 8.599999999999994 0.0
0.0 8.499999999999995 0.0
0.0 8.399999999999995 0.0
0.0 8.299999999999994 0.0
0.0 8.199999999999994 0.0
0.0 8.099999999999994 0.0
0.0 7.999999999999993 0.0
0.0 7.899999999999995 0.0
0.0 7.799999999999995 0.0
0.0 7.699999999999996 0.0
0.0 7.599999999999996 0.0
0.0 7.499999999999996 0.0
0.0 7.399999999999995 0.0
0.0 7.299999999999995 0.0
0.0 7.199999999999996 0.0
0.0 7.099999999999994 0.0
0.0 6.999999999999995 0.0
0.0 6.899999999999995 0.0
0.0 6.799999999999995 0.0
0.0 6.699999999999996 0.0
0.0 6.599999999999994 0.0
0.0 6.499999999999995 0.0
0.0 6.399999999999997 0.0
0.0 6.299999999999997 0.0
0.0 6.199999999999996 0.0
0.0 6.099999999999996 0.0
0.0 5.999999999999996 0.0
0.0 5.899999999999997 0.0
0.0 5.799999999999997 0.0
0.0 5.699999999999996 0.0
0.0 5.599999999999996 0.0
0.0 5.499999999999996 0.0
0.0 5.399999999999995 0.0
0.0 5.299999999999995 0.0
0.0 5.199999999999996 0.0
0.0 5.099999999999996 0.0
0.0 4.999999999999998 0.0
0.0 4.899999999999999 0.0
0.0 4.799999999999997 0.0
0.0 4.699999999999998 0.0
0.0 4.599999999999998 0.0
0.0 4.499999999999996 0.0
0.0 4.399999999999997 0.0
0.0 4.299999999999997 0.0
0.0 4.199999999999998 0.0
0.0 4.099999999999998 0.0
0.0 3.999999999999996 0.0
0.0 3.899999999999999 0.0
0.0 3.799999999999997 0.0
0.0 3.699999999999996 0.0
0.0 3.599999999999998 0.0
0.0 3.5 0.0
0.0 3.399999999999999 0.0
0.0 3.299999999999997 0.0
0.0 3.199999999999999 0.0
0.0 3.099999999999998 0.0
0.0 3.0 0.0
0.0 2.899999999999999 0.0
0.0 2.799999999999997 0.0
0.0 2.699999999999999 0.0
0.0 2.599999999999998 0.0
0.0 2.499999999999996 0.0
0.0 2.399999999999999 0.0
0.0 2.299999999999997 0.0
0.0 2.199999999999999 0.0
0.0 2.100000000000001 0.0
0.0 2.0 0.0
0.0 1.899999999999999 0.0
0.0 1.800000000000001 0.0
0.0 1.699999999999999 0.0
0.0 1.599999999999998 0.0
0.0 1.5 0.0
0.0 1.399999999999999 0.0
0.0 1.299999999999997 0.0
0.0 1.199999999999999 0.0
0.0 1.099999999999998 0.0
0.0 1.0 0.0
0.0 0.8999999999999986 0.0
0.0 0.8000000000000007 0.0
0.0 0.6999999999999993 0.0
0.0 0.6000000000000014 0.0
0.0 0.5 0.0
0.0 0.3999999999999986 0.0
0.0 0.3000000000000007 0.0
0.0 0.1999999999999993 0.0
[...]
POINT_DATA 804
VECTORS displacement double
0.0 0.0 0.0
0.0 0.0 0.0
0.0 -0.0017879212261463343 0.0
0.0 -0.0017879212261463372 0.0
0.0 0.0 0.0
0.0 0.0 0.0
0.0 -0.00178792122614633 0.0
0.0 -0.0017879212261463211 0.0
0.0 -9.200512502638856e-47 0.0
0.0 -3.700091779514263e-46 0.0
0.0 7.069023498043005e-45 0.0
0.0 -1.9949312893510581e-44 0.0
0.0 -2.6312673638324693e-43 0.0
0.0 2.3973110510180935e-42 0.0
0.0 1.6521483326655364e-42 0.0
0.0 -1.3006785218574925e-40 0.0
0.0 5.05457555572441e-40 0.0
0.0 4.3267541968907066e-39 0.0
0.0 -4.2705698680750595e-38 0.0
0.0 -4.709469923392805e-38 0.0
0.0 2.2423607754520857e-36 0.0
0.0 -5.380583058448347e-36 0.0
0.0 -8.933802050535597e-35 0.0
0.0 5.154239426876495e-34 0.0
0.0 2.7504875167108192e-33 0.0
0.0 -3.042694750053547e-32 0.0
0.0 -5.688703249813422e-32 0.0
0.0 1.4748464121536426e-30 0.0
0.0 -4.6858110534570264e-32 0.0
0.0 -6.428873014614637e-29 0.0
0.0 8.148103910711507e-29 0.0
0.0 2.651112267038327e-27 0.0
0.0 -5.3334645625467966e-27 0.0
0.0 -1.070025395234561e-25 0.0
0.0 2.385302882003281e-25 0.0
0.0 4.303699372583122e-24 0.0
0.0 -7.973964233601964e-24 0.0
0.0 -1.719091743988564e-22 0.0
0.0 1.5302246127986848e-22 0.0
0.0 6.6293337754558485e-21 0.0
0.0 3.90687614073779e-21 0.0
0.0 -2.332499989973417e-19 0.0
0.0 -6.082615925211328e-19 0.0
0.0 6.722374262246928e-18 0.0
0.0 3.822512236319107e-17 0.0
0.0 -1.1388319947493754e-16 0.0
0.0 -1.613495227738005e-15 0.0
0.0 -2.013814826392591e-15 0.0
0.0 4.264889518091423e-14 0.0
0.0 2.3711637852305935e-13 0.0
0.0 -2.1150944760026822e-13 0.0
0.0 -7.845166045788087e-12 0.0
0.0 -3.3939140637089825e-11 0.0
0.0 2.978196331369338e-11 0.0
0.0 1.065087276949545e-09 0.0
0.0 5.7111349303342e-09 0.0
0.0 1.0439205280241141e-08 0.0
0.0 -6.469350196249758e-08 0.0
0.0 -6.969319587726206e-07 0.0
0.0 -3.7854841822007705e-06 0.0
0.0 -1.5063793428575375e-05 0.0
0.0 -4.813114752444373e-05 0.0
0.0 -0.00012819880856663215 0.0
0.0 -0.000289899654723575 0.0
0.0 -0.0005617680683568252 0.0
0.0 -0.0009372100046644292 0.0
0.0 -0.001350123136586771 0.0
0.0 -0.0016877567583669282 0.0
0.0 -0.0018554804784683412 0.0
0.0 -0.0018526547551771097 0.0
0.0 -0.0017798939417028913 0.0
0.0 -0.0017485716891540912 0.0
0.0 -0.0017793126851390207 0.0
0.0 -0.0018094847827021124 0.0
0.0 -0.001797286909997542 0.0
0.0 -0.0017746787696338252 0.0
0.0 -0.0017807054380796364 0.0
0.0 -0.0017970544470613918 0.0
0.0 -0.0017921872332396077 0.0
0.0 -0.0017805113202103335 0.0
0.0 -0.0017859919041046802 0.0
0.0 -0.0017937587866186963 0.0
0.0 -0.0017874135304180552 0.0
0.0 -0.0017833688654512617 0.0
0.0 -0.001789918999515932 0.0
0.0 -0.0017903830377791593 0.0
0.0 -0.0017848676873894885 0.0
0.0 -0.0017873387886186603 0.0
0.0 -0.0017904866431986024 0.0
0.0 -0.0017865453802936883 0.0
0.0 -0.0017864554954833646 0.0
0.0 -0.0017898215297922086 0.0
0.0 -0.0017874762925043463 0.0
0.0 -0.0017863935190367327 0.0
0.0 -0.001789248739362432 0.0
0.0 -0.0017878225296142785 0.0
0.0 -0.0017865877590216748 0.0
0.0 -0.0017889178619891386 0.0
0.0 -0.0017878473233119624 0.0
0.0 -0.001786833067809766 0.0
0.0 -0.0017887610217488 0.0
0.0 -0.001787712361411756 0.0
0.0 -0.0017870975067362305 0.0
0.0 -0.0017886750002354514 0.0
0.0 -0.0017875093328116372 0.0
0.0 -0.001787400106733937 0.0
0.0 -0.0017885627786165595 0.0
0.0 -0.0017873159011214904 0.0
0.0 -0.0017877443385238194 0.0
0.0 -0.001788349661741174 0.0
0.0 -0.001787223897783745 0.0
0.0 -0.0017880774771727751 0.0
0.0 -0.0017880168728146631 0.0
0.0 -0.0017873210967468767 0.0
0.0 -0.0017882825589967003 0.0
0.0 -0.0017876450687742808 0.0
0.0 -0.001787622685110485 0.0
0.0 -0.0017882352758832446 0.0
0.0 -0.0017874135047182894 0.0
0.0 -0.0017879958636020283 0.0
0.0 -0.001787930065861473 0.0
0.0 -0.0017874883769062103 0.0
0.0 -0.0017881850167979613 0.0
0.0 -0.0017875784907408244 0.0
0.0 -0.0017878268988076977 0.0
0.0 -0.0017880189629733943 0.0
0.0 -0.00178750103765155 0.0
0.0 -0.0017881064974600944 0.0
0.0 -0.0017876631802332178 0.0
0.0 -0.001787782916875783 0.0
0.0 -0.0017880095915575901 0.0
0.0 -0.0017875432905989407 0.0
0.0 -0.0017880673658450515 0.0
0.0 -0.001787669859876875 0.0
0.0 -0.0017878164171235599 0.0
0.0 -0.0017879520286525027 0.0
0.0 -0.0017875946048986132 0.0
0.0 -0.0017880516676684764 0.0
0.0 -0.0017876351406195957 0.0
0.0 -0.0017878954432713734 0.0
0.0 -0.00178785339887471 0.0
0.0 -0.001787678978673662 0.0
0.0 -0.0017880124810342928 0.0
0.0 -0.001787611694452517 0.0
0.0 -0.0017879800658920913 0.0
0.0 -0.0017877273386682747 0.0
0.0 -0.0017878145660865997 0.0
0.0 -0.001787902463320314 0.0
0.0 -0.0017876672019318317 0.0
0.0 -0.0017879949153094116 0.0
0.0 -0.0017876427026866947 0.0
0.0 -0.0017879529245769174 0.0
0.0 -0.0017877377536363568 0.0
0.0 -0.0017878259473116602 0.0
0.0 -0.0017878727338088293 0.0
0.0 -0.0017877052342552674 0.0
0.0 -0.001787961940752557 0.0
0.0 -0.0017876578638708048 0.0
0.0 -0.0017879645295697016 0.0
0.0 -0.0017876963962683077 0.0
0.0 -0.0017878935824796691 0.0
0.0 -0.0017877880199853005 0.0
0.0 -0.0017877940539710228 0.0
0.0 -0.001787883429829985 0.0
0.0 -0.0017877127415550026 0.0
0.0 -0.001787943534851544 0.0
0.0 -0.00178767780420243 0.0
0.0 -0.0017879523924822188 0.0
0.0 -0.0017876933438863347 0.0
0.0 -0.0017879161285618513 0.0
0.0 -0.001787745386173997 0.0
0.0 -0.0017878538643452896 0.0
0.0 -0.0017878123187234122 0.0
0.0 -0.0017877873624078952 0.0
0.0 -0.001787874090043014 0.0
0.0 -0.0017877336517214495 0.0
0.0 -0.0017879174607775199 0.0
0.0 -0.0017877018997761618 0.0
0.0 -0.001787937224523358 0.0
0.0 -0.0017876937503210166 0.0
0.0 -0.0017879347184155865 0.0
0.0 -0.0017877055572684565 0.0
0.0 -0.001787915211592462 0.0
0.0 -0.0017877310714212054 0.0
0.0 -0.001787885371121896 0.0
0.0 -0.0017877636682343129 0.0
0.0 -0.0017878514275818465 0.0
0.0 -0.0017877977568537431 0.0
0.0 -0.0017878181816700243 0.0
0.0 -0.0017878293963805396 0.0
0.0 -0.0017877887093155007 0.0
0.0 -0.001787856332859767 0.0
0.0 -0.0017877645186108952 0.0
0.0 -0.0017878777078790186 0.0
0.0 -0.001787745923856322 0.0
0.0 -0.0017878936445596383 0.0
0.0 -0.0017877324663380075 0.0
0.0 -0.001787904844216275 0.0
0.0 -0.0017877232839945082 0.0
0.0 -0.00178791225991284 0.0
0.0 -0.0017877173904164015 0.0
0.0 -0.001787916865115605 0.0
0.0 -0.0017877138611647487 0.0
0.0 -0.0017879195079519143 0.0
0.0 -0.0017877119443952317 0.0
0.0 -0.001787920829872349 0.0
0.0 -0.0017877111186364082 0.0
0.0 -0.0017877111186364162 0.0
0.0 -0.0017879208298723587 0.0
0.0 -0.0017877119443952432 0.0
0.0 -0.0017879195079518989 0.0
0.0 -0.0017877138611647597 0.0
0.0 -0.001787916865115605 0.0
0.0 -0.0017877173904164091 0.0
0.0 -0.0017879122599128196 0.0
0.0 -0.0017877232839945128 0.0
0.0 -0.0017879048442162807 0.0
0.0 -0.0017877324663379995 0.0
0.0 -0.0017878936445596251 0.0
0.0 -0.001787745923856326 0.0
0.0 -0.0017878777078790024 0.0
0.0 -0.0017877645186108843 0.0
0.0 -0.0017878563328597662 0.0
0.0 -0.0017877887093154942 0.0
0.0 -0.0017878293963805498 0.0
0.0 -0.0017878181816700157 0.0
0.0 -0.0017877977568537538 0.0
0.0 -0.0017878514275818684 0.0
0.0 -0.001787763668234324 0.0
0.0 -0.0017878853711219137 0.0
0.0 -0.0017877310714211891 0.0
0.0 -0.001787915211592444 0.0
0.0 -0.0017877055572684552 0.0
0.0 -0.0017879347184156058 0.0
0.0 -0.001787693750321016 0.0
0.0 -0.001787937224523365 0.0
0.0 -0.001787701899776179 0.0
0.0 -0.0017879174607775298 0.0
0.0 -0.0017877336517214712 0.0
0.0 -0.001787874090043015 0.0
0.0 -0.0017877873624078805 0.0
0.0 -0.0017878123187234016 0.0
0.0 -0.0017878538643452966 0.0
0.0 -0.0017877453861739902 0.0
0.0 -0.0017879161285618411 0.0
0.0 -0.0017876933438863436 0.0
0.0 -0.0017879523924822008 0.0
0.0 -0.00178767780420243 0.0
0.0 -0.0017879435348515335 0.0
0.0 -0.001787712741555005 0.0
0.0 -0.0017878834298299777 0.0
0.0 -0.0017877940539710356 0.0
0.0 -0.0017877880199852873 0.0
0.0 -0.0017878935824796748 0.0
0.0 -0.0017876963962683123 0.0
0.0 -0.0017879645295697077 0.0
0.0 -0.0017876578638708158 0.0
0.0 -0.001787961940752553 0.0
0.0 -0.0017877052342552939 0.0
0.0 -0.001787872733808805 0.0
0.0 -0.0017878259473116927 0.0
0.0 -0.0017877377536363436 0.0
0.0 -0.0017879529245769194 0.0
0.0 -0.0017876427026867023 0.0
0.0 -0.0017879949153094207 0.0
0.0 -0.001787667201931846 0.0
0.0 -0.0017879024633203047 0.0
0.0 -0.0017878145660866214 0.0
0.0 -0.0017877273386682619 0.0
0.0 -0.0017879800658921168 0.0
0.0 -0.0017876116944525085 0.0
0.0 -0.0017880124810342969 0.0
0.0 -0.001787678978673694 0.0
0.0 -0.0017878533988746736 0.0
0.0 -0.0017878954432714053 0.0
0.0 -0.0017876351406195708 0.0
0.0 -0.0017880516676684667 0.0
0.0 -0.001787594604898622 0.0
0.0 -0.0017879520286524686 0.0
0.0 -0.001787816417123609 0.0
0.0 -0.0017876698598768388 0.0
0.0 -0.001788067365845061 0.0
0.0 -0.0017875432905989335 0.0
0.0 -0.0017880095915575502 0.0
0.0 -0.0017877829168758425 0.0
0.0 -0.0017876631802331748 0.0
0.0 -0.0017881064974601272 0.0
0.0 -0.0017875010376515762 0.0
0.0 -0.0017880189629733588 0.0
0.0 -0.001787826898807761 0.0
0.0 -0.0017875784907407674 0.0
0.0 -0.0017881850167979696 0.0
0.0 -0.001787488376906261 0.0
0.0 -0.0017879300658613885 0.0
0.0 -0.0017879958636021118 0.0
0.0 -0.0017874135047182575 0.0
0.0 -0.001788235275883204 0.0
0.0 -0.0017876226851105807 0.0
0.0 -0.001787645068774183 0.0
0.0 -0.0017882825589967562 0.0
0.0 -0.0017873210967469218 0.0
0.0 -0.0017880168728145363 0.0
0.0 -0.0017880774771729016 0.0
0.0 -0.0017872238977836965 0.0
0.0 -0.0017883496617410839 0.0
0.0 -0.0017877443385239803 0.0
0.0 -0.0017873159011213577 0.0
0.0 -0.0017885627786165276 0.0
0.0 -0.0017874001067341265 0.0
0.0 -0.001787509332811429 0.0
0.0 -0.0017886750002355156 0.0
0.0 -0.001787097506736413 0.0
0.0 -0.0017877123614114714 0.0
0.0 -0.00178876102174893 0.0
0.0 -0.0017868330678099144 0.0
0.0 -0.0017878473233116235 0.0
0.0 -0.0017889178619893093 0.0
0.0 -0.0017865877590218825 0.0
0.0 -0.0017878225296138442 0.0
0.0 -0.001789248739362642 0.0
0.0 -0.001786393519037046 0.0
0.0 -0.0017874762925037832 0.0
0.0 -0.001789821529792352 0.0
0.0 -0.0017864554954839086 0.0
0.0 -0.0017865453802930675 0.0
0.0 -0.0017904866431984118 0.0
0.0 -0.0017873387886195638 0.0
0.0 -0.0017848676873890496 0.0
0.0 -0.0017903830377783518 0.0
0.0 -0.001789918999516929 0.0
0.0 -0.0017833688654516823 0.0
0.0 -0.001787413530416631 0.0
0.0 -0.0017937587866187772 0.0
0.0 -0.0017859919041063983 0.0
0.0 -0.0017805113202097047 0.0
0.0 -0.0017921872332375712 0.0
0.0 -0.0017970544470625332 0.0
0.0 -0.0017807054380822307 0.0
0.0 -0.001774678769632309 0.0
0.0 -0.001797286909993868 0.0
0.0 -0.001809484782703431 0.0
0.0 -0.0017793126851447507 0.0
0.0 -0.0017485716891547727 0.0
0.0 -0.0017798939416944182 0.0
0.0 -0.0018526547551696415 0.0
0.0 -0.0018554804784775023 0.0
0.0 -0.0016877567583989494 0.0
0.0 -0.0013501231366337815 0.0
0.0 -0.0009372100047120273 0.0
0.0 -0.0005617680683940447 0.0
0.0 -0.0002898996547471197 0.0
0.0 -0.00012819880857892614 0.0
0.0 -4.813114752977951e-05 0.0
0.0 -1.50637934304906e-05 0.0
0.0 -3.7854841827572098e-06 0.0
0.0 -6.969319588969087e-07 0.0
0.0 -6.469350198069124e-08 0.0
0.0 1.0439205279886433e-08 0.0
0.0 5.711134930997138e-09 0.0
0.0 1.0650872771396388e-09 0.0
0.0 2.9781963333930676e-11 0.0
0.0 -3.393914063970287e-11 0.0
0.0 -7.845166047031955e-12 0.0
0.0 -2.1150944773519656e-13 0.0
0.0 2.3711637854239394e-13 0.0
0.0 4.2648895188127836e-14 0.0
0.0 -2.013814826034475e-15 0.0
0.0 -1.6134952279134994e-15 0.0
0.0 -1.1388319950423729e-16 0.0
0.0 3.822512236542403e-17 0.0
0.0 6.7223742632454996e-18 0.0
0.0 -6.082615925086149e-19 0.0
0.0 -2.332499990227174e-19 0.0
0.0 3.906876139078348e-21 0.0
0.0 6.6293337760104155e-21 0.0
0.0 1.5302246133921637e-22 0.0
0.0 -1.719091744101825e-22 0.0
0.0 -7.973964235154704e-24 0.0
0.0 4.303699372812817e-24 0.0
0.0 2.3853028823385606e-25 0.0
0.0 -1.0700253952819784e-25 0.0
0.0 -5.33346456318837e-27 0.0
0.0 2.651112267138466e-27 0.0
0.0 8.148103912026838e-29 0.0
0.0 -6.428873014855903e-29 0.0
0.0 -4.6858110775798737e-32 0.0
0.0 1.4748464122153974e-30 0.0
0.0 -5.688703249545457e-32 0.0
0.0 -3.042694750195413e-32 0.0
0.0 2.750487516727498e-33 0.0
0.0 5.154239427150803e-34 0.0
0.0 -8.933802050726734e-35 0.0
0.0 -5.380583058858608e-36 0.0
0.0 2.2423607755149174e-36 0.0
0.0 -4.709469923056412e-38 0.0
0.0 -4.2705698682149704e-38 0.0
0.0 4.326754196942334e-39 0.0
0.0 5.0545755559110024e-40 0.0
0.0 -1.3006785218820382e-40 0.0
0.0 1.652148332627006e-42 0.0
0.0 2.397311051055086e-42 0.0
0.0 -2.631267363865713e-43 0.0
0.0 -1.9949312893544422e-44 0.0
0.0 7.069023498066984e-45 0.0
0.0 -3.700091779516392e-46 0.0
0.0 -9.200512502677645e-47 0.0
0.0 -9.200512502683347e-47 0.0
0.0 -3.700091779489193e-46 0.0
0.0 7.06902349802944e-45 0.0
0.0 -1.9949312893438033e-44 0.0
0.0 -2.6312673638363067e-43 0.0
0.0 2.397311051020093e-42 0.0
0.0 1.652148332655243e-42 0.0
0.0 -1.3006785218569686e-40 0.0
0.0 5.054575555721752e-40 0.0
0.0 4.326754196892019e-39 0.0
0.0 -4.270569868075722e-38 0.0
0.0 -4.7094699233894e-38 0.0
0.0 2.2423607754519233e-36 0.0
0.0 -5.380583058447551e-36 0.0
0.0 -8.933802050535906e-35 0.0
0.0 5.154239426876624e-34 0.0
0.0 2.750487516710754e-33 0.0
0.0 -3.0426947500535127e-32 0.0
0.0 -5.688703249813775e-32 0.0
0.0 1.4748464121536503e-30 0.0
0.0 -4.685811053461515e-32 0.0
0.0 -6.428873014614587e-29 0.0
0.0 8.14810391071115e-29 0.0
0.0 2.65111226703836e-27 0.0
0.0 -5.333464562546972e-27 0.0
0.0 -1.0700253952345602e-25 0.0
0.0 2.385302882003272e-25 0.0
0.0 4.303699372583119e-24 0.0
0.0 -7.97396423360195e-24 0.0
0.0 -1.719091743988565e-22 0.0
0.0 1.530224612798677e-22 0.0
0.0 6.629333775455808e-21 0.0
0.0 3.906876140737609e-21 0.0
0.0 -2.3324999899733453e-19 0.0
0.0 -6.082615925211649e-19 0.0
0.0 6.722374262246866e-18 0.0
0.0 3.8225122363191314e-17 0.0
0.0 -1.1388319947494153e-16 0.0
0.0 -1.6134952277380034e-15 0.0
0.0 -2.0138148263926245e-15 0.0
0.0 4.264889518091474e-14 0.0
0.0 2.3711637852305975e-13 0.0
0.0 -2.1150944760027943e-13 0.0
0.0 -7.845166045788027e-12 0.0
0.0 -3.393914063708925e-11 0.0
0.0 2.978196331368903e-11 0.0
0.0 1.0650872769495481e-09 0.0
0.0 5.7111349303341795e-09 0.0
0.0 1.043920528024093e-08 0.0
0.0 -6.469350196249491e-08 0.0
0.0 -6.969319587726163e-07 0.0
0.0 -3.785484182200731e-06 0.0
0.0 -1.5063793428575546e-05 0.0
0.0 -4.813114752444384e-05 0.0
0.0 -0.0001281988085666313 0.0
0.0 -0.00028989965472357487 0.0
0.0 -0.0005617680683568225 0.0
0.0 -0.0009372100046644312 0.0
0.0 -0.0013501231365867696 0.0
0.0 -0.0016877567583669332 0.0
0.0 -0.0018554804784683403 0.0
0.0 -0.0018526547551771073 0.0
0.0 -0.001779893941702886 0.0
0.0 -0.001748571689154091 0.0
0.0 -0.0017793126851390218 0.0
0.0 -0.0018094847827021152 0.0
0.0 -0.0017972869099975456 0.0
0.0 -0.001774678769633821 0.0
0.0 -0.001780705438079634 0.0
0.0 -0.0017970544470613799 0.0
0.0 -0.0017921872332396188 0.0
0.0 -0.0017805113202103355 0.0
0.0 -0.0017859919041046713 0.0
0.0 -0.0017937587866186976 0.0
0.0 -0.001787413530418055 0.0
0.0 -0.001783368865451249 0.0
0.0 -0.0017899189995159422 0.0
0.0 -0.0017903830377791591 0.0
0.0 -0.0017848676873894668 0.0
0.0 -0.001787338788618661 0.0
0.0 -0.0017904866431986005 0.0
0.0 -0.0017865453802937072 0.0
0.0 -0.001786455495483352 0.0
0.0 -0.0017898215297922212 0.0
0.0 -0.00178747629250435 0.0
0.0 -0.0017863935190367386 0.0
0.0 -0.0017892487393624216 0.0
0.0 -0.0017878225296142924 0.0
0.0 -0.001786587759021673 0.0
0.0 -0.0017889178619891217 0.0
0.0 -0.0017878473233119763 0.0
0.0 -0.00178683306780975 0.0
0.0 -0.0017887610217487931 0.0
0.0 -0.0017877123614117546 0.0
0.0 -0.0017870975067362474 0.0
0.0 -0.0017886750002354622 0.0
0.0 -0.001787509332811648 0.0
0.0 -0.0017874001067339513 0.0
0.0 -0.001788562778616554 0.0
0.0 -0.0017873159011214932 0.0
0.0 -0.0017877443385238227 0.0
0.0 -0.0017883496617411784 0.0
0.0 -0.0017872238977837446 0.0
0.0 -0.001788077477172778 0.0
0.0 -0.0017880168728146692 0.0
0.0 -0.001787321096746885 0.0
0.0 -0.0017882825589967178 0.0
0.0 -0.0017876450687742808 0.0
0.0 -0.0017876226851104798 0.0
0.0 -0.0017882352758832433 0.0
0.0 -0.0017874135047182946 0.0
0.0 -0.0017879958636020312 0.0
0.0 -0.0017879300658614735 0.0
0.0 -0.0017874883769062324 0.0
0.0 -0.001788185016797956 0.0
0.0 -0.0017875784907408225 0.0
0.0 -0.0017878268988077077 0.0
0.0 -0.0017880189629734063 0.0
0.0 -0.0017875010376515396 0.0
0.0 -0.0017881064974600881 0.0
0.0 -0.0017876631802332121 0.0
0.0 -0.0017877829168757855 0.0
0.0 -0.0017880095915575954 0.0
0.0 -0.001787543290598939 0.0
0.0 -0.001788067365845045 0.0
0.0 -0.0017876698598768795 0.0
0.0 -0.0017878164171235618 0.0
0.0 -0.0017879520286525079 0.0
0.0 -0.001787594604898616 0.0
0.0 -0.0017880516676684693 0.0
0.0 -0.001787635140619593 0.0
0.0 -0.001787895443271376 0.0
0.0 -0.0017878533988746963 0.0
0.0 -0.0017876789786736645 0.0
0.0 -0.0017880124810343153 0.0
0.0 -0.0017876116944525232 0.0
0.0 -0.001787980065892103 0.0
0.0 -0.001787727338668278 0.0
0.0 -0.0017878145660865942 0.0
0.0 -0.00178790246332032 0.0
0.0 -0.0017876672019318301 0.0
0.0 -0.00178799491530942 0.0
0.0 -0.0017876427026867138 0.0
0.0 -0.0017879529245769076 0.0
0.0 -0.0017877377536363577 0.0
0.0 -0.0017878259473116755 0.0
0.0 -0.001787872733808827 0.0
0.0 -0.0017877052342552806 0.0
0.0 -0.0017879619407525648 0.0
0.0 -0.0017876578638708056 0.0
0.0 -0.0017879645295696886 0.0
0.0 -0.0017876963962683184 0.0
0.0 -0.0017878935824796704 0.0
0.0 -0.0017877880199852981 0.0
0.0 -0.0017877940539710291 0.0
0.0 -0.0017878834298299788 0.0
0.0 -0.0017877127415550011 0.0
0.0 -0.0017879435348515454 0.0
0.0 -0.001787677804202426 0.0
0.0 -0.001787952392482192 0.0
0.0 -0.001787693343886341 0.0
0.0 -0.0017879161285618411 0.0
0.0 -0.0017877453861739954 0.0
0.0 -0.001787853864345293 0.0
0.0 -0.0017878123187234053 0.0
0.0 -0.001787787362407883 0.0
0.0 -0.0017878740900430293 0.0
0.0 -0.0017877336517214723 0.0
0.0 -0.001787917460777533 0.0
0.0 -0.0017877018997761733 0.0
0.0 -0.0017879372245233655 0.0
0.0 -0.0017876937503210162 0.0
0.0 -0.0017879347184155988 0.0
0.0 -0.001787705557268455 0.0
0.0 -0.0017879152115924518 0.0
0.0 -0.0017877310714211907 0.0
0.0 -0.0017878853711219109 0.0
0.0 -0.0017877636682343088 0.0
0.0 -0.0017878514275818601 0.0
0.0 -0.0017877977568537507 0.0
0.0 -0.0017878181816700072 0.0
0.0 -0.0017878293963805479 0.0
0.0 -0.0017877887093154985 0.0
0.0 -0.0017878563328597886 0.0
0.0 -0.0017877645186108956 0.0
0.0 -0.0017878777078790115 0.0
0.0 -0.0017877459238563281 0.0
0.0 -0.0017878936445596399 0.0
0.0 -0.001787732466338007 0.0
0.0 -0.001787904844216285 0.0
0.0 -0.0017877232839945145 0.0
0.0 -0.001787912259912822 0.0
0.0 -0.001787717390416403 0.0
0.0 -0.0017879168651156016 0.0
0.0 -0.0017877138611647593 0.0
0.0 -0.001787919507951896 0.0
0.0 -0.0017877119443952324 0.0
0.0 -0.0017879208298723576 0.0
0.0 -0.001787711118636413 0.0
0.0 -0.0017877111186364125 0.0
0.0 -0.0017879208298723565 0.0
0.0 -0.0017877119443952376 0.0
0.0 -0.001787919507951915 0.0
0.0 -0.0017877138611647541 0.0
0.0 -0.0017879168651156027 0.0
0.0 -0.0017877173904164159 0.0
0.0 -0.0017879122599128328 0.0
0.0 -0.001787723283994511 0.0
0.0 -0.0017879048442162805 0.0
0.0 -0.001787732466338003 0.0
0.0 -0.0017878936445596396 0.0
0.0 -0.0017877459238563166 0.0
0.0 -0.001787877707879006 0.0
0.0 -0.0017877645186108971 0.0
0.0 -0.0017878563328597567 0.0
0.0 -0.0017877887093154902 0.0
0.0 -0.0017878293963805368 0.0
0.0 -0.0017878181816700295 0.0
0.0 -0.001787797756853749 0.0
0.0 -0.0017878514275818577 0.0
0.0 -0.0017877636682343135 0.0
0.0 -0.0017878853711219024 0.0
0.0 -0.001787731071421199 0.0
0.0 -0.0017879152115924657 0.0
0.0 -0.0017877055572684437 0.0
0.0 -0.001787934718415582 0.0
0.0 -0.0017876937503210216 0.0
0.0 -0.0017879372245233544 0.0
0.0 -0.0017877018997761607 0.0
0.0 -0.0017879174607775342 0.0
0.0 -0.0017877336517214616 0.0
0.0 -0.0017878740900430178 0.0
0.0 -0.001787787362407893 0.0
0.0 -0.0017878123187233998 0.0
0.0 -0.0017878538643452916 0.0
0.0 -0.0017877453861739842 0.0
0.0 -0.0017879161285618542 0.0
0.0 -0.0017876933438863351 0.0
0.0 -0.0017879523924822143 0.0
0.0 -0.0017876778042024302 0.0
0.0 -0.0017879435348515384 0.0
0.0 -0.0017877127415550109 0.0
0.0 -0.0017878834298299736 0.0
0.0 -0.0017877940539710432 0.0
0.0 -0.001787788019985309 0.0