# vtk DataFile Version 2.0
data_815
ASCII
DATASET UNSTRUCTURED_GRID
POINTS 804 float
0.0 0.0 0.0
0.1 0.0 0.0
0.1 20.0 0.0
0.0 20.0 0.0
0.0 0.0 -0.1
0.1 0.0 -0.1
0.1 20.0 -0.1
0.0 20.0 -0.1
0.1 0.09999999999992462 0.0
0.1 0.1999999999998517 0.0
0.1 0.2999999999997818 0.0
0.1 0.399999999999712 0.0
0.1 0.4999999999996377 0.0
0.1 0.5999999999995541 0.0
0.1 0.6999999999994495 0.0
0.1 0.7999999999993355 0.0
0.1 0.8999999999992101 0.0
0.1 0.999999999999102 0.0
0.1 1.099999999999006 0.0
0.1 1.199999999998936 0.0
0.1 1.299999999998867 0.0
0.1 1.399999999998797 0.0
0.1 1.499999999998727 0.0
0.1 1.599999999998657 0.0
0.1 1.699999999998587 0.0
0.1 1.799999999998517 0.0
0.1 1.899999999998447 0.0
0.1 1.999999999998378 0.0
0.1 2.099999999998308 0.0
0.1 2.199999999998238 0.0
0.1 2.299999999998168 0.0
0.1 2.399999999998067 0.0
0.1 2.499999999997942 0.0
0.1 2.599999999997706 0.0
0.1 2.699999999997444 0.0
0.1 2.799999999997153 0.0
0.1 2.899999999996861 0.0
0.1 2.999999999996569 0.0
0.1 3.099999999996277 0.0
0.1 3.199999999995984 0.0
0.1 3.299999999995693 0.0
0.1 3.399999999995401 0.0
0.1 3.499999999995108 0.0
0.1 3.599999999994816 0.0
0.1 3.699999999994525 0.0
0.1 3.799999999994232 0.0
0.1 3.89999999999394 0.0
0.1 3.999999999993648 0.0
0.1 4.099999999993356 0.0
0.1 4.199999999993064 0.0
0.1 4.299999999992772 0.0
0.1 4.399999999992479 0.0
0.1 4.499999999992188 0.0
0.1 4.599999999991895 0.0
0.1 4.699999999991603 0.0
0.1 4.799999999991311 0.0
0.1 4.899999999991019 0.0
0.1 4.999999999990727 0.0
0.1 5.099999999990436 0.0
0.1 5.199999999990144 0.0
0.1 5.299999999989851 0.0
0.1 5.399999999989559 0.0
0.1 5.499999999989267 0.0
0.1 5.599999999988975 0.0
0.1 5.699999999988683 0.0
0.1 5.799999999988391 0.0
0.1 5.899999999988099 0.0
0.1 5.999999999987806 0.0
0.1 6.099999999987515 0.0
0.1 6.199999999987222 0.0
0.1 6.299999999986929 0.0
0.1 6.399999999986638 0.0
0.1 6.499999999986345 0.0
0.1 6.599999999986054 0.0
0.1 6.699999999985762 0.0
0.1 6.79999999998547 0.0
0.1 6.899999999985177 0.0
0.1 6.999999999984885 0.0
0.1 7.099999999984593 0.0
0.1 7.199999999984302 0.0
0.1 7.299999999984009 0.0
0.1 7.399999999983717 0.0
0.1 7.499999999983426 0.0
0.1 7.599999999983132 0.0
0.1 7.699999999982841 0.0
0.1 7.799999999982549 0.0
0.1 7.899999999982256 0.0
0.1 7.999999999982034 0.0
0.1 8.099999999981964 0.0
0.1 8.199999999982062 0.0
0.1 8.299999999982214 0.0
0.1 8.399999999982366 0.0
0.1 8.499999999982517 0.0
0.1 8.59999999998267 0.0
0.1 8.699999999982822 0.0
0.1 8.799999999982973 0.0
0.1 8.899999999983125 0.0
0.1 8.999999999983277 0.0
0.1 9.09999999998343 0.0
0.1 9.19999999998358 0.0
0.1 9.299999999983733 0.0
0.1 9.399999999983885 0.0
0.1 9.499999999984038 0.0
0.1 9.599999999984188 0.0
0.1 9.69999999998434 0.0
0.1 9.799999999984493 0.0
0.1 9.899999999984646 0.0
0.1 9.999999999984798 0.0
0.1 10.09999999998495 0.0
0.1 10.1999999999851 0.0
0.1 10.29999999998525 0.0
0.1 10.39999999998541 0.0
0.1 10.49999999998556 0.0
0.1 10.59999999998571 0.0
0.1 10.69999999998586 0.0
0.1 10.79999999998601 0.0
0.1 10.89999999998616 0.0
0.1 10.99999999998632 0.0
0.1 11.09999999998647 0.0
0.1 11.19999999998662 0.0
0.1 11.29999999998677 0.0
0.1 11.39999999998693 0.0
0.1 11.49999999998708 0.0
0.1 11.59999999998723 0.0
0.1 11.69999999998738 0.0
0.1 11.79999999998754 0.0
0.1 11.89999999998769 0.0
0.1 11.99999999998784 0.0
0.1 12.09999999998799 0.0
0.1 12.19999999998814 0.0
0.1 12.2999999999883 0.0
0.1 12.39999999998845 0.0
0.1 12.4999999999886 0.0
0.1 12.59999999998875 0.0
0.1 12.6999999999889 0.0
0.1 12.79999999998905 0.0
0.1 12.89999999998921 0.0
0.1 12.99999999998936 0.0
0.1 13.09999999998951 0.0
0.1 13.19999999998966 0.0
0.1 13.29999999998982 0.0
0.1 13.39999999998997 0.0
0.1 13.49999999999012 0.0
0.1 13.59999999999027 0.0
0.1 13.69999999999042 0.0
0.1 13.79999999999057 0.0
0.1 13.89999999999073 0.0
0.1 13.99999999999088 0.0
0.1 14.09999999999103 0.0
0.1 14.19999999999118 0.0
0.1 14.29999999999134 0.0
0.1 14.39999999999149 0.0
0.1 14.49999999999164 0.0
0.1 14.59999999999179 0.0
0.1 14.69999999999194 0.0
0.1 14.7999999999921 0.0
0.1 14.89999999999225 0.0
0.1 14.9999999999924 0.0
0.1 15.09999999999255 0.0
0.1 15.1999999999927 0.0
0.1 15.29999999999285 0.0
0.1 15.39999999999301 0.0
0.1 15.49999999999316 0.0
0.1 15.59999999999331 0.0
0.1 15.69999999999346 0.0
0.1 15.79999999999362 0.0
0.1 15.89999999999377 0.0
0.1 15.99999999999392 0.0
0.1 16.09999999999407 0.0
0.1 16.19999999999422 0.0
0.1 16.29999999999437 0.0
0.1 16.39999999999453 0.0
0.1 16.49999999999468 0.0
0.1 16.59999999999483 0.0
0.1 16.69999999999498 0.0
0.1 16.79999999999514 0.0
0.1 16.89999999999528 0.0
0.1 16.99999999999544 0.0
0.1 17.09999999999559 0.0
0.1 17.19999999999574 0.0
0.1 17.29999999999589 0.0
0.1 17.39999999999605 0.0
0.1 17.4999999999962 0.0
0.1 17.59999999999635 0.0
0.1 17.6999999999965 0.0
0.1 17.79999999999665 0.0
0.1 17.89999999999681 0.0
0.1 17.99999999999696 0.0
0.1 18.09999999999711 0.0
0.1 18.19999999999726 0.0
0.1 18.29999999999742 0.0
0.1 18.39999999999757 0.0
0.1 18.49999999999772 0.0
0.1 18.59999999999787 0.0
0.1 18.69999999999802 0.0
0.1 18.79999999999818 0.0
0.1 18.89999999999833 0.0
0.1 18.99999999999848 0.0
0.1 19.09999999999863 0.0
0.1 19.19999999999878 0.0
0.1 19.29999999999894 0.0
0.1 19.39999999999909 0.0
0.1 19.49999999999924 0.0
0.1 19.59999999999939 0.0
0.1 19.69999999999955 0.0
0.1 19.7999999999997 0.0
0.1 19.89999999999985 0.0
0.0 19.9 0.0
0.0 19.8 0.0
0.0 19.7 0.0
0.0 19.6 0.0
0.0 19.5 0.0
0.0 19.4 0.0
0.0 19.3 0.0
0.0 19.2 0.0
0.0 19.1 0.0
0.0 19.0 0.0
0.0 18.9 0.0
0.0 18.8 0.0
0.0 18.7 0.0
0.0 18.6 0.0
0.0 18.5 0.0
0.0 18.4 0.0
0.0 18.3 0.0
0.0 18.2 0.0
0.0 18.1 0.0
0.0 18.0 0.0
0.0 17.9 0.0
0.0 17.8 0.0
0.0 17.7 0.0
0.0 17.6 0.0
0.0 17.5 0.0
0.0 17.4 0.0
0.0 17.3 0.0
0.0 17.2 0.0
0.0 17.09999999999999 0.0
0.0 17.0 0.0
0.0 16.9 0.0
0.0 16.8 0.0
0.0 16.7 0.0
0.0 16.59999999999999 0.0
0.0 16.49999999999999 0.0
0.0 16.4 0.0
0.0 16.29999999999999 0.0
0.0 16.2 0.0
0.0 16.09999999999999 0.0
0.0 15.99999999999999 0.0
0.0 15.89999999999999 0.0
0.0 15.79999999999999 0.0
0.0 15.69999999999999 0.0
0.0 15.59999999999999 0.0
0.0 15.49999999999999 0.0
0.0 15.39999999999999 0.0
0.0 15.29999999999999 0.0
0.0 15.19999999999999 0.0
0.0 15.09999999999999 0.0
0.0 14.99999999999999 0.0
0.0 14.89999999999999 0.0
0.0 14.79999999999999 0.0
0.0 14.69999999999999 0.0
0.0 14.59999999999999 0.0
0.0 14.49999999999999 0.0
0.0 14.39999999999999 0.0
0.0 14.29999999999999 0.0
0.0 14.19999999999999 0.0
0.0 14.09999999999999 0.0
0.0 13.99999999999999 0.0
0.0 13.89999999999999 0.0
0.0 13.79999999999999 0.0
0.0 13.69999999999999 0.0
0.0 13.59999999999999 0.0
0.0 13.49999999999999 0.0
0.0 13.39999999999999 0.0
0.0 13.29999999999999 0.0
0.0 13.19999999999999 0.0
0.0 13.09999999999999 0.0
0.0 12.99999999999999 0.0
0.0 12.89999999999999 0.0
0.0 12.79999999999999 0.0
0.0 12.69999999999999 0.0
0.0 12.59999999999999 0.0
0.0 12.49999999999999 0.0
0.0 12.39999999999999 0.0
0.0 12.29999999999999 0.0
0.0 12.19999999999999 0.0
0.0 12.09999999999999 0.0
0.0 11.99999999999999 0.0
0.0 11.89999999999999 0.0
0.0 11.79999999999999 0.0
0.0 11.69999999999999 0.0
0.0 11.59999999999999 0.0
0.0 11.49999999999999 0.0
0.0 11.39999999999999 0.0
0.0 11.29999999999999 0.0
0.0 11.19999999999999 0.0
0.0 11.09999999999999 0.0
0.0 10.99999999999999 0.0
0.0 10.89999999999999 0.0
0.0 10.79999999999999 0.0
0.0 10.69999999999999 0.0
0.0 10.59999999999999 0.0
0.0 10.49999999999999 0.0
0.0 10.39999999999999 0.0
0.0 10.29999999999999 0.0
0.0 10.19999999999999 0.0
0.0 10.09999999999999 0.0
0.0 9.999999999999993 0.0
0.0 9.899999999999993 0.0
0.0 9.799999999999994 0.0
0.0 9.699999999999992 0.0
0.0 9.599999999999993 0.0
0.0 9.499999999999993 0.0
0.0 9.399999999999993 0.0
0.0 9.299999999999995 0.0
0.0 9.199999999999996 0.0
0.0 9.099999999999994 0.0
0.0 8.999999999999995 0.0
0.0 8.899999999999995 0.0
0.0 8.799999999999994 0.0
0.0 8.699999999999994 0.0
0.0 8.599999999999994 0.0
0.0 8.499999999999995 0.0
0.0 8.399999999999995 0.0
0.0 8.299999999999994 0.0
0.0 8.199999999999994 0.0
0.0 8.099999999999994 0.0
0.0 7.999999999999993 0.0
0.0 7.899999999999995 0.0
0.0 7.799999999999995 0.0
0.0 7.699999999999996 0.0
0.0 7.599999999999996 0.0
0.0 7.499999999999996 0.0
0.0 7.399999999999995 0.0
0.0 7.299999999999995 0.0
0.0 7.199999999999996 0.0
0.0 7.099999999999994 0.0
0.0 6.999999999999995 0.0
0.0 6.899999999999995 0.0
0.0 6.799999999999995 0.0
0.0 6.699999999999996 0.0
0.0 6.599999999999994 0.0
0.0 6.499999999999995 0.0
0.0 6.399999999999997 0.0
0.0 6.299999999999997 0.0
0.0 6.199999999999996 0.0
0.0 6.099999999999996 0.0
0.0 5.999999999999996 0.0
0.0 5.899999999999997 0.0
0.0 5.799999999999997 0.0
0.0 5.699999999999996 0.0
0.0 5.599999999999996 0.0
0.0 5.499999999999996 0.0
0.0 5.399999999999995 0.0
0.0 5.299999999999995 0.0
0.0 5.199999999999996 0.0
0.0 5.099999999999996 0.0
0.0 4.999999999999998 0.0
0.0 4.899999999999999 0.0
0.0 4.799999999999997 0.0
0.0 4.699999999999998 0.0
0.0 4.599999999999998 0.0
0.0 4.499999999999996 0.0
0.0 4.399999999999997 0.0
0.0 4.299999999999997 0.0
0.0 4.199999999999998 0.0
0.0 4.099999999999998 0.0
0.0 3.999999999999996 0.0
0.0 3.899999999999999 0.0
0.0 3.799999999999997 0.0
0.0 3.699999999999996 0.0
0.0 3.599999999999998 0.0
0.0 3.5 0.0
0.0 3.399999999999999 0.0
0.0 3.299999999999997 0.0
0.0 3.199999999999999 0.0
0.0 3.099999999999998 0.0
0.0 3.0 0.0
0.0 2.899999999999999 0.0
0.0 2.799999999999997 0.0
0.0 2.699999999999999 0.0
0.0 2.599999999999998 0.0
0.0 2.499999999999996 0.0
0.0 2.399999999999999 0.0
0.0 2.299999999999997 0.0
0.0 2.199999999999999 0.0
0.0 2.100000000000001 0.0
0.0 2.0 0.0
0.0 1.899999999999999 0.0
0.0 1.800000000000001 0.0
0.0 1.699999999999999 0.0
0.0 1.599999999999998 0.0
0.0 1.5 0.0
0.0 1.399999999999999 0.0
0.0 1.299999999999997 0.0
0.0 1.199999999999999 0.0
0.0 1.099999999999998 0.0
0.0 1.0 0.0
0.0 0.8999999999999986 0.0
0.0 0.8000000000000007 0.0
0.0 0.6999999999999993 0.0
0.0 0.6000000000000014 0.0
0.0 0.5 0.0
0.0 0.3999999999999986 0.0
0.0 0.3000000000000007 0.0
0.0 0.1999999999999993 0.0
[...]
POINT_DATA 804
VECTORS displacement double
0.0 0.0 0.0
0.0 0.0 0.0
0.0 0.0017844386944940126 0.0
0.0 0.0017844386944940028 0.0
0.0 0.0 0.0
0.0 0.0 0.0
0.0 0.0017844386944940132 0.0
0.0 0.0017844386944940243 0.0
0.0 7.52138067516906e-05 0.0
0.0 0.00017780829084715452 0.0
0.0 0.0003244894335282861 0.0
0.0 0.0005153923898349587 0.0
0.0 0.0007353136439940687 0.0
0.0 0.0009608603750200004 0.0
0.0 0.0011695557627523887 0.0
0.0 0.0013465120776433193 0.0
0.0 0.0014863006749739878 0.0
0.0 0.0015906788045981877 0.0
0.0 0.001664841637218538 0.0
0.0 0.0017147037501903217 0.0
0.0 0.0017459593266617977 0.0
0.0 0.0017640388955034844 0.0
0.0 0.0017738501902973167 0.0
0.0 0.0017791291351825383 0.0
0.0 0.001782048854143669 0.0
0.0 0.001783558070207765 0.0
0.0 0.0017841307745429724 0.0
0.0 0.001784237034559481 0.0
0.0 0.0017842845562880685 0.0
0.0 0.0017844032655581986 0.0
0.0 0.0017844908587457838 0.0
0.0 0.0017844688465813528 0.0
0.0 0.0017844073928590988 0.0
0.0 0.0017844046488024803 0.0
0.0 0.0017844496787758567 0.0
0.0 0.001784466300729526 0.0
0.0 0.0017844380019723554 0.0
0.0 0.0017844178542181456 0.0
0.0 0.0017844339066770867 0.0
0.0 0.0017844528579378206 0.0
0.0 0.0017844447928151872 0.0
0.0 0.0017844287944108485 0.0
0.0 0.0017844321385898647 0.0
0.0 0.0017844449649990727 0.0
0.0 0.0017844441712629837 0.0
0.0 0.0017844341322307835 0.0
0.0 0.0017844337259389532 0.0
0.0 0.0017844415474587553 0.0
0.0 0.001784442393173452 0.0
0.0 0.0017844362727180688 0.0
0.0 0.0017844354114157843 0.0
0.0 0.0017844402636675917 0.0
0.0 0.0017844409457926202 0.0
0.0 0.0017844370566779313 0.0
0.0 0.001784436648542416 0.0
0.0 0.0017844398046092252 0.0
0.0 0.0017844399273126848 0.0
0.0 0.001784437364852357 0.0
0.0 0.001784437521099949 0.0
0.0 0.001784439595589071 0.0
0.0 0.0017844392049937614 0.0
0.0 0.0017844375656849468 0.0
0.0 0.0017844381510371727 0.0
0.0 0.0017844394041118005 0.0
0.0 0.001784438689727745 0.0
0.0 0.0017844378011628956 0.0
0.0 0.0017844385904394083 0.0
0.0 0.0017844391521367573 0.0
0.0 0.0017844383612849407 0.0
0.0 0.001784438100244932 0.0
0.0 0.00178443883757895 0.0
0.0 0.001784438851077925 0.0
0.0 0.0017844382313820292 0.0
0.0 0.001784438416982143 0.0
0.0 0.0017844388845007417 0.0
0.0 0.001784438574298254 0.0
0.0 0.0017844382908221426 0.0
0.0 0.0017844386610566152 0.0
0.0 0.0017844387680027549 0.0
0.0 0.0017844384154432889 0.0
0.0 0.0017844384689211362 0.0
0.0 0.0017844387528417503 0.0
0.0 0.0017844385912710265 0.0
0.0 0.001784438422139084 0.0
0.0 0.0017844386406352603 0.0
0.0 0.0017844386905494986 0.0
0.0 0.0017844384830309112 0.0
0.0 0.001784438543719658 0.0
0.0 0.001784438697647666 0.0
0.0 0.0017844385719219694 0.0
0.0 0.0017844385071397668 0.0
0.0 0.001784438654490801 0.0
0.0 0.0017844386361256833 0.0
0.0 0.001784438522032587 0.0
0.0 0.0017844386055116104 0.0
0.0 0.0017844386620565512 0.0
0.0 0.0017844385604962787 0.0
0.0 0.0017844385746662325 0.0
0.0 0.0017844386593506537 0.0
0.0 0.0017844385994481165 0.0
0.0 0.0017844385661051454 0.0
0.0 0.0017844386436326114 0.0
0.0 0.001784438627668278 0.0
0.0 0.0017844385735688482 0.0
0.0 0.001784438627048469 0.0
0.0 0.001784438643261478 0.0
0.0 0.0017844385888188164 0.0
0.0 0.0017844386156235458 0.0
0.0 0.0017844386491602086 0.0
0.0 0.0017844386055795307 0.0
0.0 0.0017844386106786378 0.0
0.0 0.001784438649446892 0.0
0.0 0.0017844386204606425 0.0
0.0 0.0017844386109842508 0.0
0.0 0.0017844386476296712 0.0
0.0 0.00178443863211705 0.0
0.0 0.0017844386147794873 0.0
0.0 0.0017844386457845534 0.0
0.0 0.0017844386405956843 0.0
0.0 0.0017844386205013735 0.0
0.0 0.0017844386447608796 0.0
0.0 0.001784438646683472 0.0
0.0 0.0017844386268785985 0.0
0.0 0.0017844386448329804 0.0
0.0 0.0017844386511942573 0.0
0.0 0.0017844386331032963 0.0
0.0 0.001784438645972541 0.0
0.0 0.0017844386547440484 0.0
0.0 0.0017844386387512634 0.0
0.0 0.0017844386480820615 0.0
0.0 0.0017844386575894238 0.0
0.0 0.001784438643881314 0.0
0.0 0.0017844386507758758 0.0
0.0 0.001784438660050568 0.0
0.0 0.001784438648541207 0.0
0.0 0.0017844386537344107 0.0
0.0 0.0017844386623893937 0.0
0.0 0.0017844386527249357 0.0
0.0 0.0017844386567869104 0.0
0.0 0.001784438664759715 0.0
0.0 0.0017844386563780693 0.0
0.0 0.0017844386599559028 0.0
0.0 0.0017844386670938567 0.0
0.0 0.0017844386595799947 0.0
0.0 0.0017844386632592361 0.0
0.0 0.001784438669222667 0.0
0.0 0.001784438662578044 0.0
0.0 0.0017844386665138545 0.0
0.0 0.0017844386711737114 0.0
0.0 0.0017844386654768012 0.0
0.0 0.00178443866958342 0.0
0.0 0.0017844386730231623 0.0
0.0 0.0017844386682921208 0.0
0.0 0.0017844386723777246 0.0
0.0 0.0017844386749057096 0.0
0.0 0.0017844386708661402 0.0
0.0 0.0017844386750556819 0.0
0.0 0.0017844386766969278 0.0
0.0 0.001784438673248545 0.0
0.0 0.0017844386776600394 0.0
0.0 0.0017844386782889126 0.0
0.0 0.0017844386755448362 0.0
0.0 0.0017844386801625159 0.0
0.0 0.0017844386795912999 0.0
0.0 0.0017844386779466447 0.0
0.0 0.0017844386823425305 0.0
0.0 0.001784438680759827 0.0
0.0 0.0017844386804314492 0.0
0.0 0.0017844386840853257 0.0
0.0 0.0017844386819787991 0.0
0.0 0.0017844386828524631 0.0
0.0 0.0017844386854120708 0.0
0.0 0.0017844386833701477 0.0
0.0 0.0017844386850093819 0.0
0.0 0.0017844386864923772 0.0
0.0 0.0017844386848831087 0.0
0.0 0.001784438686817169 0.0
0.0 0.0017844386874889373 0.0
0.0 0.0017844386863686487 0.0
0.0 0.0017844386883432604 0.0
0.0 0.0017844386884267977 0.0
0.0 0.001784438687748228 0.0
0.0 0.0017844386896653391 0.0
0.0 0.0017844386892664726 0.0
0.0 0.0017844386890136627 0.0
0.0 0.001784438690832844 0.0
0.0 0.0017844386899260262 0.0
0.0 0.0017844386902694943 0.0
0.0 0.0017844386917385915 0.0
0.0 0.0017844386904801932 0.0
0.0 0.0017844386915083017 0.0
0.0 0.0017844386923159528 0.0
0.0 0.0017844386910290941 0.0
0.0 0.001784438692672909 0.0
0.0 0.0017844386925115433 0.0
0.0 0.0017844386917458142 0.0
0.0 0.0017844386935381242 0.0
0.0 0.001784438692490964 0.0
0.0 0.0017844386926111767 0.0
0.0 0.0017844386939762727 0.0
0.0 0.0017844386924336043 0.0
0.0 0.0017844386935308664 0.0
0.0 0.0017844386939043961 0.0
0.0 0.001784438692583716 0.0
0.0 0.0017844386942191658 0.0
0.0 0.0017844386934982755 0.0
0.0 0.001784438692962263 0.0
0.0 0.0017844386929622691 0.0
0.0 0.0017844386934982917 0.0
0.0 0.0017844386942191723 0.0
0.0 0.0017844386925837297 0.0
0.0 0.0017844386939043929 0.0
0.0 0.001784438693530851 0.0
0.0 0.0017844386924336028 0.0
0.0 0.001784438693976271 0.0
0.0 0.0017844386926111622 0.0
0.0 0.0017844386924909552 0.0
0.0 0.0017844386935381262 0.0
0.0 0.001784438691745824 0.0
0.0 0.0017844386925115442 0.0
0.0 0.0017844386926729127 0.0
0.0 0.0017844386910291004 0.0
0.0 0.0017844386923159146 0.0
0.0 0.0017844386915083052 0.0
0.0 0.0017844386904802125 0.0
0.0 0.0017844386917385878 0.0
0.0 0.001784438690269513 0.0
0.0 0.0017844386899260269 0.0
0.0 0.0017844386908328481 0.0
0.0 0.0017844386890136642 0.0
0.0 0.0017844386892664687 0.0
0.0 0.0017844386896653198 0.0
0.0 0.0017844386877482515 0.0
0.0 0.0017844386884267962 0.0
0.0 0.0017844386883432805 0.0
0.0 0.001784438686368649 0.0
0.0 0.0017844386874889388 0.0
0.0 0.001784438686817163 0.0
0.0 0.0017844386848831174 0.0
0.0 0.00178443868649238 0.0
0.0 0.0017844386850093751 0.0
0.0 0.0017844386833701428 0.0
0.0 0.0017844386854120994 0.0
0.0 0.0017844386828524742 0.0
0.0 0.0017844386819787991 0.0
0.0 0.001784438684085322 0.0
0.0 0.001784438680431435 0.0
0.0 0.0017844386807598245 0.0
0.0 0.001784438682342508 0.0
0.0 0.001784438677946628 0.0
0.0 0.0017844386795913215 0.0
0.0 0.0017844386801625176 0.0
0.0 0.0017844386755448418 0.0
0.0 0.0017844386782889224 0.0
0.0 0.0017844386776600441 0.0
0.0 0.0017844386732485354 0.0
0.0 0.0017844386766969228 0.0
0.0 0.0017844386750556858 0.0
0.0 0.0017844386708661443 0.0
0.0 0.0017844386749057155 0.0
0.0 0.001784438672377724 0.0
0.0 0.0017844386682921351 0.0
0.0 0.0017844386730231495 0.0
0.0 0.0017844386695834119 0.0
0.0 0.0017844386654767923 0.0
0.0 0.0017844386711737014 0.0
0.0 0.001784438666513858 0.0
0.0 0.001784438662578062 0.0
0.0 0.0017844386692226527 0.0
0.0 0.0017844386632592435 0.0
0.0 0.0017844386595799785 0.0
0.0 0.0017844386670938493 0.0
0.0 0.0017844386599559067 0.0
0.0 0.001784438656378084 0.0
0.0 0.0017844386647597023 0.0
0.0 0.0017844386567869002 0.0
0.0 0.0017844386527249546 0.0
0.0 0.0017844386623893924 0.0
0.0 0.0017844386537344068 0.0
0.0 0.0017844386485412083 0.0
0.0 0.0017844386600505743 0.0
0.0 0.0017844386507758748 0.0
0.0 0.0017844386438813315 0.0
0.0 0.0017844386575894323 0.0
0.0 0.0017844386480820801 0.0
0.0 0.0017844386387512725 0.0
0.0 0.0017844386547440712 0.0
0.0 0.00178443864597255 0.0
0.0 0.0017844386331032998 0.0
0.0 0.0017844386511942517 0.0
0.0 0.0017844386448329812 0.0
0.0 0.0017844386268785928 0.0
0.0 0.0017844386466834767 0.0
0.0 0.0017844386447608785 0.0
0.0 0.0017844386205013887 0.0
0.0 0.0017844386405956815 0.0
0.0 0.0017844386457845512 0.0
0.0 0.001784438614779479 0.0
0.0 0.0017844386321170503 0.0
0.0 0.0017844386476296619 0.0
0.0 0.0017844386109842644 0.0
0.0 0.0017844386204606505 0.0
0.0 0.0017844386494468897 0.0
0.0 0.0017844386106786354 0.0
0.0 0.001784438605579527 0.0
0.0 0.001784438649160215 0.0
0.0 0.0017844386156235339 0.0
0.0 0.0017844385888188164 0.0
0.0 0.0017844386432614885 0.0
0.0 0.0017844386270484706 0.0
0.0 0.00178443857356884 0.0
0.0 0.0017844386276682775 0.0
0.0 0.0017844386436326198 0.0
0.0 0.0017844385661051488 0.0
0.0 0.001784438599448114 0.0
0.0 0.0017844386593506645 0.0
0.0 0.001784438574666238 0.0
0.0 0.0017844385604962737 0.0
0.0 0.0017844386620565586 0.0
0.0 0.0017844386055116059 0.0
0.0 0.0017844385220326033 0.0
0.0 0.0017844386361257013 0.0
0.0 0.0017844386544908016 0.0
0.0 0.0017844385071397822 0.0
0.0 0.0017844385719219737 0.0
0.0 0.0017844386976476664 0.0
0.0 0.0017844385437196528 0.0
0.0 0.0017844384830309147 0.0
0.0 0.0017844386905494919 0.0
0.0 0.0017844386406352419 0.0
0.0 0.0017844384221390795 0.0
0.0 0.0017844385912710147 0.0
0.0 0.001784438752841734 0.0
0.0 0.0017844384689211473 0.0
0.0 0.0017844384154432882 0.0
0.0 0.001784438768002761 0.0
0.0 0.0017844386610566174 0.0
0.0 0.001784438290822136 0.0
0.0 0.0017844385742982554 0.0
0.0 0.0017844388845007439 0.0
0.0 0.001784438416982145 0.0
0.0 0.0017844382313820413 0.0
0.0 0.0017844388510779143 0.0
0.0 0.0017844388375789417 0.0
0.0 0.0017844381002449447 0.0
0.0 0.0017844383612849281 0.0
0.0 0.0017844391521367614 0.0
0.0 0.0017844385904394018 0.0
0.0 0.001784437801162894 0.0
0.0 0.0017844386897277516 0.0
0.0 0.0017844394041117892 0.0
0.0 0.0017844381510371725 0.0
0.0 0.0017844375656849542 0.0
0.0 0.0017844392049937634 0.0
0.0 0.0017844395955890636 0.0
0.0 0.0017844375210999404 0.0
0.0 0.0017844373648523593 0.0
0.0 0.0017844399273126807 0.0
0.0 0.0017844398046092237 0.0
0.0 0.0017844366485424003 0.0
0.0 0.001784437056677928 0.0
0.0 0.00178444094579262 0.0
0.0 0.0017844402636675975 0.0
0.0 0.0017844354114157687 0.0
0.0 0.0017844362727180703 0.0
0.0 0.0017844423931734398 0.0
0.0 0.0017844415474587594 0.0
0.0 0.0017844337259389654 0.0
0.0 0.0017844341322307848 0.0
0.0 0.001784444171262975 0.0
0.0 0.0017844449649990822 0.0
0.0 0.001784432138589854 0.0
0.0 0.0017844287944108314 0.0
0.0 0.0017844447928151777 0.0
0.0 0.0017844528579378288 0.0
0.0 0.0017844339066770854 0.0
0.0 0.001784417854218145 0.0
0.0 0.0017844380019723727 0.0
0.0 0.0017844663007295135 0.0
0.0 0.0017844496787758582 0.0
0.0 0.0017844046488024866 0.0
0.0 0.0017844073928590938 0.0
0.0 0.001784468846581336 0.0
0.0 0.0017844908587457914 0.0
0.0 0.0017844032655581913 0.0
0.0 0.0017842845562880685 0.0
0.0 0.0017842370345594785 0.0
0.0 0.0017841307745429654 0.0
0.0 0.001783558070207788 0.0
0.0 0.0017820488541436907 0.0
0.0 0.0017791291351825806 0.0
0.0 0.0017738501902974122 0.0
0.0 0.0017640388955036436 0.0
0.0 0.0017459593266620798 0.0
0.0 0.001714703750190743 0.0
0.0 0.0016648416372191377 0.0
0.0 0.001590678804599003 0.0
0.0 0.0014863006749749439 0.0
0.0 0.0013465120776443911 0.0
0.0 0.0011695557627534564 0.0
0.0 0.0009608603750209901 0.0
0.0 0.0007353136439949002 0.0
0.0 0.0005153923898355624 0.0
0.0 0.0003244894335286544 0.0
0.0 0.00017780829084733176 0.0
0.0 7.521380675175405e-05 0.0
0.0 7.521380675168977e-05 0.0
0.0 0.00017780829084715273 0.0
0.0 0.0003244894335282852 0.0
0.0 0.0005153923898349637 0.0
0.0 0.0007353136439940715 0.0
0.0 0.0009608603750200031 0.0
0.0 0.0011695557627523767 0.0
0.0 0.0013465120776433245 0.0
0.0 0.0014863006749739785 0.0
0.0 0.0015906788045982002 0.0
0.0 0.0016648416372185388 0.0
0.0 0.0017147037501903226 0.0
0.0 0.0017459593266618092 0.0
0.0 0.0017640388955034961 0.0
0.0 0.0017738501902973267 0.0
0.0 0.0017791291351825333 0.0
0.0 0.001782048854143669 0.0
0.0 0.001783558070207787 0.0
0.0 0.0017841307745429698 0.0
0.0 0.001784237034559471 0.0
0.0 0.0017842845562880696 0.0
0.0 0.0017844032655581995 0.0
0.0 0.0017844908587457946 0.0
0.0 0.0017844688465813397 0.0
0.0 0.0017844073928591027 0.0
0.0 0.0017844046488024847 0.0
0.0 0.0017844496787758621 0.0
0.0 0.0017844663007295248 0.0
0.0 0.0017844380019723625 0.0
0.0 0.001784417854218147 0.0
0.0 0.001784433906677079 0.0
0.0 0.001784452857937829 0.0
0.0 0.0017844447928151766 0.0
0.0 0.0017844287944108422 0.0
0.0 0.0017844321385898643 0.0
0.0 0.001784444964999075 0.0
0.0 0.0017844441712629772 0.0
0.0 0.0017844341322307917 0.0
0.0 0.001784433725938964 0.0
0.0 0.001784441547458752 0.0
0.0 0.001784442393173442 0.0
0.0 0.0017844362727180774 0.0
0.0 0.001784435411415763 0.0
0.0 0.0017844402636675964 0.0
0.0 0.0017844409457926115 0.0
0.0 0.0017844370566779265 0.0
0.0 0.00178443664854241 0.0
0.0 0.0017844398046092283 0.0
0.0 0.001784439927312695 0.0
0.0 0.00178443736485236 0.0
0.0 0.0017844375210999438 0.0
0.0 0.0017844395955890653 0.0
0.0 0.0017844392049937586 0.0
0.0 0.001784437565684958 0.0
0.0 0.0017844381510371769 0.0
0.0 0.0017844394041117936 0.0
0.0 0.0017844386897277382 0.0
0.0 0.0017844378011628837 0.0
0.0 0.0017844385904394096 0.0
0.0 0.001784439152136763 0.0
0.0 0.0017844383612849225 0.0
0.0 0.0017844381002449377 0.0
0.0 0.001784438837578947 0.0
0.0 0.0017844388510779214 0.0
0.0 0.0017844382313820493 0.0
0.0 0.0017844384169821486 0.0
0.0 0.001784438884500752 0.0
0.0 0.0017844385742982428 0.0
0.0 0.001784438290822135 0.0
0.0 0.0017844386610566146 0.0
0.0 0.0017844387680027679 0.0
0.0 0.0017844384154432889 0.0
0.0 0.0017844384689211486 0.0
0.0 0.001784438752841745 0.0
0.0 0.0017844385912710189 0.0
0.0 0.00178443842213909 0.0
0.0 0.0017844386406352512 0.0
0.0 0.0017844386905495006 0.0
0.0 0.0017844384830309088 0.0
0.0 0.0017844385437196567 0.0
0.0 0.00178443869764766 0.0
0.0 0.0017844385719219715 0.0
0.0 0.0017844385071397848 0.0
0.0 0.0017844386544908102 0.0
0.0 0.0017844386361257018 0.0
0.0 0.0017844385220325929 0.0
0.0 0.0017844386055115994 0.0
0.0 0.0017844386620565584 0.0
0.0 0.0017844385604962715 0.0
0.0 0.0017844385746662293 0.0
0.0 0.0017844386593506654 0.0
0.0 0.0017844385994481055 0.0
0.0 0.0017844385661051378 0.0
0.0 0.0017844386436326378 0.0
0.0 0.0017844386276682858 0.0
0.0 0.0017844385735688469 0.0
0.0 0.0017844386270484693 0.0
0.0 0.0017844386432614866 0.0
0.0 0.0017844385888188185 0.0
0.0 0.0017844386156235204 0.0
0.0 0.001784438649160194 0.0
0.0 0.0017844386055795296 0.0
0.0 0.0017844386106786326 0.0
0.0 0.0017844386494468868 0.0
0.0 0.001784438620460656 0.0
0.0 0.0017844386109842588 0.0
0.0 0.00178443864762967 0.0
0.0 0.0017844386321170496 0.0
0.0 0.001784438614779487 0.0
0.0 0.0017844386457845569 0.0
0.0 0.0017844386405956845 0.0
0.0 0.00178443862050138 0.0
0.0 0.0017844386447608653 0.0
0.0 0.0017844386466834795 0.0
0.0 0.0017844386268786032 0.0
0.0 0.0017844386448329897 0.0
0.0 0.0017844386511942565 0.0
0.0 0.0017844386331032991 0.0
0.0 0.0017844386459725443 0.0
0.0 0.0017844386547440684 0.0
0.0 0.0017844386387512645 0.0
0.0 0.0017844386480820773 0.0
0.0 0.0017844386575894334 0.0
0.0 0.0017844386438813334 0.0
0.0 0.0017844386507758663 0.0
0.0 0.0017844386600505701 0.0
0.0 0.001784438648541199 0.0
0.0 0.0017844386537344084 0.0
0.0 0.0017844386623893922 0.0
0.0 0.0017844386527249637 0.0
0.0 0.0017844386567869084 0.0
0.0 0.0017844386647597017 0.0
0.0 0.0017844386563780667 0.0
0.0 0.0017844386599558972 0.0
0.0 0.0017844386670938476 0.0
0.0 0.0017844386595799841 0.0
0.0 0.0017844386632592318 0.0
0.0 0.0017844386692226581 0.0
0.0 0.0017844386625780653 0.0
0.0 0.0017844386665138497 0.0
0.0 0.001784438671173698 0.0
0.0 0.0017844386654768012 0.0
0.0 0.0017844386695834232 0.0
0.0 0.0017844386730231398 0.0
0.0 0.0017844386682921312 0.0
0.0 0.0017844386723777372 0.0
0.0 0.0017844386749057116 0.0
0.0 0.0017844386708661434 0.0
0.0 0.0017844386750556723 0.0
0.0 0.0017844386766969205 0.0
0.0 0.0017844386732485265 0.0
0.0 0.0017844386776600498 0.0
0.0 0.0017844386782889215 0.0
0.0 0.0017844386755448336 0.0
0.0 0.0017844386801625306 0.0
0.0 0.0017844386795913135 0.0
0.0 0.001784438677946638 0.0
0.0 0.0017844386823425158 0.0
0.0 0.0017844386807598167 0.0
0.0 0.001784438680431433 0.0
0.0 0.0017844386840853322 0.0
0.0 0.0017844386819787941 0.0
0.0 0.0017844386828524555 0.0
0.0 0.0017844386854120873 0.0
0.0 0.0017844386833701558 0.0
0.0 0.0017844386850093912 0.0
0.0 0.001784438686492382 0.0
0.0 0.0017844386848831094 0.0
0.0 0.0017844386868171693 0.0
0.0 0.0017844386874889468 0.0
0.0 0.0017844386863686552 0.0
0.0 0.0017844386883432875 0.0
0.0 0.0017844386884267962 0.0
0.0 0.0017844386877482548 0.0
0.0 0.0017844386896653211 0.0
0.0 0.001784438689266469 0.0
0.0 0.0017844386890136464 0.0
0.0 0.0017844386908328505 0.0
0.0 0.0017844386899260288 0.0
0.0 0.0017844386902695106 0.0
0.0 0.0017844386917385878 0.0
0.0 0.0017844386904802125 0.0
0.0 0.001784438691508311 0.0
0.0 0.0017844386923159222 0.0
0.0 0.0017844386910290902 0.0
0.0 0.0017844386926729105 0.0
0.0 0.001784438692511538 0.0
0.0 0.0017844386917458108 0.0
0.0 0.0017844386935381227 0.0
0.0 0.0017844386924909634 0.0
0.0 0.0017844386926111693 0.0
0.0 0.001784438693976255 0.0
0.0 0.0017844386924336076 0.0
0.0 0.001784438693530861 0.0
0.0 0.0017844386939044035 0.0
0.0 0.0017844386925837293 0.0
0.0 0.0017844386942191812 0.0
0.0 0.0017844386934982887 0.0
0.0 0.0017844386929622715 0.0
0.0 0.0017844386929622667 0.0
0.0 0.0017844386934982815 0.0
0.0 0.0017844386942191765 0.0
0.0 0.00178443869258372 0.0
0.0 0.0017844386939044 0.0
0.0 0.0017844386935308622 0.0
0.0 0.0017844386924336074 0.0
0.0 0.0017844386939762692 0.0
0.0 0.0017844386926111728 0.0
0.0 0.0017844386924909662 0.0
0.0 0.0017844386935381184 0.0
0.0 0.0017844386917458168 0.0
0.0 0.001784438692511547 0.0
0.0 0.0017844386926729077 0.0
0.0 0.001784438691029091 0.0
0.0 0.0017844386923159428 0.0
0.0 0.0017844386915082952 0.0
0.0 0.0017844386904802033 0.0
0.0 0.0017844386917385993 0.0
0.0 0.0017844386902695067 0.0
0.0 0.0017844386899260273 0.0
0.0 0.00178443869083284 0.0
0.0 0.0017844386890136584 0.0
0.0 0.001784438689266473 0.0
0.0 0.0017844386896653467 0.0
0.0 0.0017844386877482272 0.0
0.0 0.001784438688426796 0.0
0.0 0.0017844386883432816 0.0
0.0 0.0017844386863686537 0.0
0.0 0.0017844386874889416 0.0
0.0 0.0017844386868171613 0.0
0.0 0.0017844386848831042 0.0
0.0 0.0017844386864923716 0.0
0.0 0.0017844386850093864 0.0
0.0 0.0017844386833701573 0.0
0.0 0.0017844386854120892 0.0
0.0 0.0017844386828524692 0.0
0.0 0.0017844386819787887 0.0
0.0 0.001784438684085321 0.0
0.0 0.0017844386804314488 0.0
0.0 0.0017844386807598222 0.0
0.0 0.0017844386823425225 0.0
0.0 0.0017844386779466348 0.0
0.0 0.0017844386795912996 0.0
0.0 0.0017844386801625339 0.0
0.0 0.0017844386755448537 0.0
0.0 0.0017844386782889224 0.0
0.0 0.001784438677660046 0.0
0.0 0.0017844386732485365 0.0
0.0 0.0017844386766969198 0.0
0.0 0.0017844386750556856 0.0
0.0 0.001784438670866133 0.0
0.0 0.001784438674905708 0.0
0.0 0.0017844386723777392 0.0
0.0 0.0017844386682921206 0.0
0.0 0.001784438673023154 0.0
0.0 0.0017844386695834227 0.0
0.0 0.0017844386654768092 0.0
0.0 0.0017844386711737066 0.0
0.0 0.0017844386665138512 0.0
0.0 0.0017844386625780588 0.0
0.0 0.0017844386692226625 0.0
0.0 0.0017844386632592396 0.0
0.0 0.001784438659579996 0.0
0.0 0.0017844386670938619 0.0
0.0 0.0017844386599559076 0.0
0.0 0.0017844386563780747 0.0