# vtk DataFile Version 2.0
data_235
ASCII
DATASET UNSTRUCTURED_GRID
POINTS 804 float
0.0 0.0 0.0
0.1 0.0 0.0
0.1 20.0 0.0
0.0 20.0 0.0
0.0 0.0 -0.1
0.1 0.0 -0.1
0.1 20.0 -0.1
0.0 20.0 -0.1
0.1 0.09999999999992462 0.0
0.1 0.1999999999998517 0.0
0.1 0.2999999999997818 0.0
0.1 0.399999999999712 0.0
0.1 0.4999999999996377 0.0
0.1 0.5999999999995541 0.0
0.1 0.6999999999994495 0.0
0.1 0.7999999999993355 0.0
0.1 0.8999999999992101 0.0
0.1 0.999999999999102 0.0
0.1 1.099999999999006 0.0
0.1 1.199999999998936 0.0
0.1 1.299999999998867 0.0
0.1 1.399999999998797 0.0
0.1 1.499999999998727 0.0
0.1 1.599999999998657 0.0
0.1 1.699999999998587 0.0
0.1 1.799999999998517 0.0
0.1 1.899999999998447 0.0
0.1 1.999999999998378 0.0
0.1 2.099999999998308 0.0
0.1 2.199999999998238 0.0
0.1 2.299999999998168 0.0
0.1 2.399999999998067 0.0
0.1 2.499999999997942 0.0
0.1 2.599999999997706 0.0
0.1 2.699999999997444 0.0
0.1 2.799999999997153 0.0
0.1 2.899999999996861 0.0
0.1 2.999999999996569 0.0
0.1 3.099999999996277 0.0
0.1 3.199999999995984 0.0
0.1 3.299999999995693 0.0
0.1 3.399999999995401 0.0
0.1 3.499999999995108 0.0
0.1 3.599999999994816 0.0
0.1 3.699999999994525 0.0
0.1 3.799999999994232 0.0
0.1 3.89999999999394 0.0
0.1 3.999999999993648 0.0
0.1 4.099999999993356 0.0
0.1 4.199999999993064 0.0
0.1 4.299999999992772 0.0
0.1 4.399999999992479 0.0
0.1 4.499999999992188 0.0
0.1 4.599999999991895 0.0
0.1 4.699999999991603 0.0
0.1 4.799999999991311 0.0
0.1 4.899999999991019 0.0
0.1 4.999999999990727 0.0
0.1 5.099999999990436 0.0
0.1 5.199999999990144 0.0
0.1 5.299999999989851 0.0
0.1 5.399999999989559 0.0
0.1 5.499999999989267 0.0
0.1 5.599999999988975 0.0
0.1 5.699999999988683 0.0
0.1 5.799999999988391 0.0
0.1 5.899999999988099 0.0
0.1 5.999999999987806 0.0
0.1 6.099999999987515 0.0
0.1 6.199999999987222 0.0
0.1 6.299999999986929 0.0
0.1 6.399999999986638 0.0
0.1 6.499999999986345 0.0
0.1 6.599999999986054 0.0
0.1 6.699999999985762 0.0
0.1 6.79999999998547 0.0
0.1 6.899999999985177 0.0
0.1 6.999999999984885 0.0
0.1 7.099999999984593 0.0
0.1 7.199999999984302 0.0
0.1 7.299999999984009 0.0
0.1 7.399999999983717 0.0
0.1 7.499999999983426 0.0
0.1 7.599999999983132 0.0
0.1 7.699999999982841 0.0
0.1 7.799999999982549 0.0
0.1 7.899999999982256 0.0
0.1 7.999999999982034 0.0
0.1 8.099999999981964 0.0
0.1 8.199999999982062 0.0
0.1 8.299999999982214 0.0
0.1 8.399999999982366 0.0
0.1 8.499999999982517 0.0
0.1 8.59999999998267 0.0
0.1 8.699999999982822 0.0
0.1 8.799999999982973 0.0
0.1 8.899999999983125 0.0
0.1 8.999999999983277 0.0
0.1 9.09999999998343 0.0
0.1 9.19999999998358 0.0
0.1 9.299999999983733 0.0
0.1 9.399999999983885 0.0
0.1 9.499999999984038 0.0
0.1 9.599999999984188 0.0
0.1 9.69999999998434 0.0
0.1 9.799999999984493 0.0
0.1 9.899999999984646 0.0
0.1 9.999999999984798 0.0
0.1 10.09999999998495 0.0
0.1 10.1999999999851 0.0
0.1 10.29999999998525 0.0
0.1 10.39999999998541 0.0
0.1 10.49999999998556 0.0
0.1 10.59999999998571 0.0
0.1 10.69999999998586 0.0
0.1 10.79999999998601 0.0
0.1 10.89999999998616 0.0
0.1 10.99999999998632 0.0
0.1 11.09999999998647 0.0
0.1 11.19999999998662 0.0
0.1 11.29999999998677 0.0
0.1 11.39999999998693 0.0
0.1 11.49999999998708 0.0
0.1 11.59999999998723 0.0
0.1 11.69999999998738 0.0
0.1 11.79999999998754 0.0
0.1 11.89999999998769 0.0
0.1 11.99999999998784 0.0
0.1 12.09999999998799 0.0
0.1 12.19999999998814 0.0
0.1 12.2999999999883 0.0
0.1 12.39999999998845 0.0
0.1 12.4999999999886 0.0
0.1 12.59999999998875 0.0
0.1 12.6999999999889 0.0
0.1 12.79999999998905 0.0
0.1 12.89999999998921 0.0
0.1 12.99999999998936 0.0
0.1 13.09999999998951 0.0
0.1 13.19999999998966 0.0
0.1 13.29999999998982 0.0
0.1 13.39999999998997 0.0
0.1 13.49999999999012 0.0
0.1 13.59999999999027 0.0
0.1 13.69999999999042 0.0
0.1 13.79999999999057 0.0
0.1 13.89999999999073 0.0
0.1 13.99999999999088 0.0
0.1 14.09999999999103 0.0
0.1 14.19999999999118 0.0
0.1 14.29999999999134 0.0
0.1 14.39999999999149 0.0
0.1 14.49999999999164 0.0
0.1 14.59999999999179 0.0
0.1 14.69999999999194 0.0
0.1 14.7999999999921 0.0
0.1 14.89999999999225 0.0
0.1 14.9999999999924 0.0
0.1 15.09999999999255 0.0
0.1 15.1999999999927 0.0
0.1 15.29999999999285 0.0
0.1 15.39999999999301 0.0
0.1 15.49999999999316 0.0
0.1 15.59999999999331 0.0
0.1 15.69999999999346 0.0
0.1 15.79999999999362 0.0
0.1 15.89999999999377 0.0
0.1 15.99999999999392 0.0
0.1 16.09999999999407 0.0
0.1 16.19999999999422 0.0
0.1 16.29999999999437 0.0
0.1 16.39999999999453 0.0
0.1 16.49999999999468 0.0
0.1 16.59999999999483 0.0
0.1 16.69999999999498 0.0
0.1 16.79999999999514 0.0
0.1 16.89999999999528 0.0
0.1 16.99999999999544 0.0
0.1 17.09999999999559 0.0
0.1 17.19999999999574 0.0
0.1 17.29999999999589 0.0
0.1 17.39999999999605 0.0
0.1 17.4999999999962 0.0
0.1 17.59999999999635 0.0
0.1 17.6999999999965 0.0
0.1 17.79999999999665 0.0
0.1 17.89999999999681 0.0
0.1 17.99999999999696 0.0
0.1 18.09999999999711 0.0
0.1 18.19999999999726 0.0
0.1 18.29999999999742 0.0
0.1 18.39999999999757 0.0
0.1 18.49999999999772 0.0
0.1 18.59999999999787 0.0
0.1 18.69999999999802 0.0
0.1 18.79999999999818 0.0
0.1 18.89999999999833 0.0
0.1 18.99999999999848 0.0
0.1 19.09999999999863 0.0
0.1 19.19999999999878 0.0
0.1 19.29999999999894 0.0
0.1 19.39999999999909 0.0
0.1 19.49999999999924 0.0
0.1 19.59999999999939 0.0
0.1 19.69999999999955 0.0
0.1 19.7999999999997 0.0
0.1 19.89999999999985 0.0
0.0 19.9 0.0
0.0 19.8 0.0
0.0 19.7 0.0
0.0 19.6 0.0
0.0 19.5 0.0
0.0 19.4 0.0
0.0 19.3 0.0
0.0 19.2 0.0
0.0 19.1 0.0
0.0 19.0 0.0
0.0 18.9 0.0
0.0 18.8 0.0
0.0 18.7 0.0
0.0 18.6 0.0
0.0 18.5 0.0
0.0 18.4 0.0
0.0 18.3 0.0
0.0 18.2 0.0
0.0 18.1 0.0
0.0 18.0 0.0
0.0 17.9 0.0
0.0 17.8 0.0
0.0 17.7 0.0
0.0 17.6 0.0
0.0 17.5 0.0
0.0 17.4 0.0
0.0 17.3 0.0
0.0 17.2 0.0
0.0 17.09999999999999 0.0
0.0 17.0 0.0
0.0 16.9 0.0
0.0 16.8 0.0
0.0 16.7 0.0
0.0 16.59999999999999 0.0
0.0 16.49999999999999 0.0
0.0 16.4 0.0
0.0 16.29999999999999 0.0
0.0 16.2 0.0
0.0 16.09999999999999 0.0
0.0 15.99999999999999 0.0
0.0 15.89999999999999 0.0
0.0 15.79999999999999 0.0
0.0 15.69999999999999 0.0
0.0 15.59999999999999 0.0
0.0 15.49999999999999 0.0
0.0 15.39999999999999 0.0
0.0 15.29999999999999 0.0
0.0 15.19999999999999 0.0
0.0 15.09999999999999 0.0
0.0 14.99999999999999 0.0
0.0 14.89999999999999 0.0
0.0 14.79999999999999 0.0
0.0 14.69999999999999 0.0
0.0 14.59999999999999 0.0
0.0 14.49999999999999 0.0
0.0 14.39999999999999 0.0
0.0 14.29999999999999 0.0
0.0 14.19999999999999 0.0
0.0 14.09999999999999 0.0
0.0 13.99999999999999 0.0
0.0 13.89999999999999 0.0
0.0 13.79999999999999 0.0
0.0 13.69999999999999 0.0
0.0 13.59999999999999 0.0
0.0 13.49999999999999 0.0
0.0 13.39999999999999 0.0
0.0 13.29999999999999 0.0
0.0 13.19999999999999 0.0
0.0 13.09999999999999 0.0
0.0 12.99999999999999 0.0
0.0 12.89999999999999 0.0
0.0 12.79999999999999 0.0
0.0 12.69999999999999 0.0
0.0 12.59999999999999 0.0
0.0 12.49999999999999 0.0
0.0 12.39999999999999 0.0
0.0 12.29999999999999 0.0
0.0 12.19999999999999 0.0
0.0 12.09999999999999 0.0
0.0 11.99999999999999 0.0
0.0 11.89999999999999 0.0
0.0 11.79999999999999 0.0
0.0 11.69999999999999 0.0
0.0 11.59999999999999 0.0
0.0 11.49999999999999 0.0
0.0 11.39999999999999 0.0
0.0 11.29999999999999 0.0
0.0 11.19999999999999 0.0
0.0 11.09999999999999 0.0
0.0 10.99999999999999 0.0
0.0 10.89999999999999 0.0
0.0 10.79999999999999 0.0
0.0 10.69999999999999 0.0
0.0 10.59999999999999 0.0
0.0 10.49999999999999 0.0
0.0 10.39999999999999 0.0
0.0 10.29999999999999 0.0
0.0 10.19999999999999 0.0
0.0 10.09999999999999 0.0
0.0 9.999999999999993 0.0
0.0 9.899999999999993 0.0
0.0 9.799999999999994 0.0
0.0 9.699999999999992 0.0
0.0 9.599999999999993 0.0
0.0 9.499999999999993 0.0
0.0 9.399999999999993 0.0
0.0 9.299999999999995 0.0
0.0 9.199999999999996 0.0
0.0 9.099999999999994 0.0
0.0 8.999999999999995 0.0
0.0 8.899999999999995 0.0
0.0 8.799999999999994 0.0
0.0 8.699999999999994 0.0
0.0 8.599999999999994 0.0
0.0 8.499999999999995 0.0
0.0 8.399999999999995 0.0
0.0 8.299999999999994 0.0
0.0 8.199999999999994 0.0
0.0 8.099999999999994 0.0
0.0 7.999999999999993 0.0
0.0 7.899999999999995 0.0
0.0 7.799999999999995 0.0
0.0 7.699999999999996 0.0
0.0 7.599999999999996 0.0
0.0 7.499999999999996 0.0
0.0 7.399999999999995 0.0
0.0 7.299999999999995 0.0
0.0 7.199999999999996 0.0
0.0 7.099999999999994 0.0
0.0 6.999999999999995 0.0
0.0 6.899999999999995 0.0
0.0 6.799999999999995 0.0
0.0 6.699999999999996 0.0
0.0 6.599999999999994 0.0
0.0 6.499999999999995 0.0
0.0 6.399999999999997 0.0
0.0 6.299999999999997 0.0
0.0 6.199999999999996 0.0
0.0 6.099999999999996 0.0
0.0 5.999999999999996 0.0
0.0 5.899999999999997 0.0
0.0 5.799999999999997 0.0
0.0 5.699999999999996 0.0
0.0 5.599999999999996 0.0
0.0 5.499999999999996 0.0
0.0 5.399999999999995 0.0
0.0 5.299999999999995 0.0
0.0 5.199999999999996 0.0
0.0 5.099999999999996 0.0
0.0 4.999999999999998 0.0
0.0 4.899999999999999 0.0
0.0 4.799999999999997 0.0
0.0 4.699999999999998 0.0
0.0 4.599999999999998 0.0
0.0 4.499999999999996 0.0
0.0 4.399999999999997 0.0
0.0 4.299999999999997 0.0
0.0 4.199999999999998 0.0
0.0 4.099999999999998 0.0
0.0 3.999999999999996 0.0
0.0 3.899999999999999 0.0
0.0 3.799999999999997 0.0
0.0 3.699999999999996 0.0
0.0 3.599999999999998 0.0
0.0 3.5 0.0
0.0 3.399999999999999 0.0
0.0 3.299999999999997 0.0
0.0 3.199999999999999 0.0
0.0 3.099999999999998 0.0
0.0 3.0 0.0
0.0 2.899999999999999 0.0
0.0 2.799999999999997 0.0
0.0 2.699999999999999 0.0
0.0 2.599999999999998 0.0
0.0 2.499999999999996 0.0
0.0 2.399999999999999 0.0
0.0 2.299999999999997 0.0
0.0 2.199999999999999 0.0
0.0 2.100000000000001 0.0
0.0 2.0 0.0
0.0 1.899999999999999 0.0
0.0 1.800000000000001 0.0
0.0 1.699999999999999 0.0
0.0 1.599999999999998 0.0
0.0 1.5 0.0
0.0 1.399999999999999 0.0
0.0 1.299999999999997 0.0
0.0 1.199999999999999 0.0
0.0 1.099999999999998 0.0
0.0 1.0 0.0
0.0 0.8999999999999986 0.0
0.0 0.8000000000000007 0.0
0.0 0.6999999999999993 0.0
0.0 0.6000000000000014 0.0
0.0 0.5 0.0
0.0 0.3999999999999986 0.0
0.0 0.3000000000000007 0.0
0.0 0.1999999999999993 0.0
[...]
POINT_DATA 804
VECTORS displacement double
0.0 0.0 0.0
0.0 0.0 0.0
0.0 -0.0017875910568081706 0.0
0.0 -0.0017875910568081856 0.0
0.0 0.0 0.0
0.0 0.0 0.0
0.0 -0.0017875910568081758 0.0
0.0 -0.0017875910568081797 0.0
0.0 -6.111914340720745e-20 0.0
0.0 -3.503576300722635e-20 0.0
0.0 1.8355834266831392e-18 0.0
0.0 7.183756507795011e-18 0.0
0.0 -3.194705399575791e-17 0.0
0.0 -3.4232685206771207e-16 0.0
0.0 -4.3149082608812765e-16 0.0
0.0 8.205989457030425e-15 0.0
0.0 5.003227192031662e-14 0.0
0.0 1.1958976521238594e-14 0.0
0.0 -1.310554943421978e-12 0.0
0.0 -7.3705088344409e-12 0.0
0.0 -7.547647993214313e-12 0.0
0.0 1.4176046658327628e-10 0.0
0.0 1.0641073959338162e-09 0.0
0.0 3.515334486325809e-09 0.0
0.0 -7.765882932741705e-10 0.0
0.0 -8.375289965120679e-08 0.0
0.0 -5.968884032189793e-07 0.0
0.0 -2.8153140630328325e-06 0.0
0.0 -1.043083527416268e-05 0.0
0.0 -3.217091974469522e-05 0.0
0.0 -8.484488293596478e-05 0.0
0.0 -0.00019405445651626206 0.0
0.0 -0.0003878428362054289 0.0
0.0 -0.0006800376408868154 0.0
0.0 -0.0010482429013356684 0.0
0.0 -0.0014235395018804883 0.0
0.0 -0.0017120256151060454 0.0
0.0 -0.0018482377546446677 0.0
0.0 -0.0018442716203758006 0.0
0.0 -0.0017841135947289173 0.0
0.0 -0.0017546844275387447 0.0
0.0 -0.0017756299921914437 0.0
0.0 -0.00180300464723866 0.0
0.0 -0.0017996101926670495 0.0
0.0 -0.0017804371588330669 0.0
0.0 -0.001778326160226512 0.0
0.0 -0.0017913986502468662 0.0
0.0 -0.0017942936595412517 0.0
0.0 -0.001784900675942635 0.0
0.0 -0.0017828457255872924 0.0
0.0 -0.0017900437478604923 0.0
0.0 -0.0017907730351072286 0.0
0.0 -0.0017850960410479733 0.0
0.0 -0.001785747588744877 0.0
0.0 -0.0017900528541358804 0.0
0.0 -0.0017882147445417427 0.0
0.0 -0.0017854017980407464 0.0
0.0 -0.0017879906734097977 0.0
0.0 -0.0017891657122693614 0.0
0.0 -0.0017864870643649073 0.0
0.0 -0.0017868785273789391 0.0
0.0 -0.001788892087833136 0.0
0.0 -0.001787396083795885 0.0
0.0 -0.0017866227848537084 0.0
0.0 -0.0017883878319108338 0.0
0.0 -0.0017878443004773691 0.0
0.0 -0.00178672529783937 0.0
0.0 -0.001788020614408084 0.0
0.0 -0.0017879846951864627 0.0
0.0 -0.001786894776175099 0.0
0.0 -0.00178782755376764 0.0
0.0 -0.0017879788638107985 0.0
0.0 -0.001787031405875936 0.0
0.0 -0.0017877574625355958 0.0
0.0 -0.0017879137669043067 0.0
0.0 -0.001787124708755066 0.0
0.0 -0.0017877590982439632 0.0
0.0 -0.0017878225649731651 0.0
0.0 -0.001787193946298454 0.0
0.0 -0.0017877952442109943 0.0
0.0 -0.001787714427595137 0.0
0.0 -0.0017872642825498208 0.0
0.0 -0.0017878360168816752 0.0
0.0 -0.0017875952287396098 0.0
0.0 -0.0017873566958962275 0.0
0.0 -0.0017878525018397737 0.0
0.0 -0.001787480305060747 0.0
0.0 -0.001787479120493801 0.0
0.0 -0.001787818476923497 0.0
0.0 -0.0017873991159567855 0.0
0.0 -0.0017876166091122748 0.0
0.0 -0.001787722574252675 0.0
0.0 -0.0017873872335107508 0.0
0.0 -0.0017877276538940778 0.0
0.0 -0.001787585804578286 0.0
0.0 -0.0017874626000373216 0.0
0.0 -0.001787759360038668 0.0
0.0 -0.0017874679073160633 0.0
0.0 -0.0017875960867271498 0.0
0.0 -0.0017876866913455985 0.0
0.0 -0.0017874407860733689 0.0
0.0 -0.0017877060069809287 0.0
0.0 -0.0017875539339675204 0.0
0.0 -0.001787527673440838 0.0
0.0 -0.0017877072300220326 0.0
0.0 -0.001787467645827806 0.0
0.0 -0.0017876556520697302 0.0
0.0 -0.0017875980129427903 0.0
0.0 -0.0017875094199301623 0.0
0.0 -0.0017876976596151006 0.0
0.0 -0.0017874927944107942 0.0
0.0 -0.0017876320002473533 0.0
0.0 -0.0017876081113807612 0.0
0.0 -0.0017875149061586531 0.0
0.0 -0.0017876837145871043 0.0
0.0 -0.0017875044008880403 0.0
0.0 -0.0017876309780894058 0.0
0.0 -0.0017875970769592494 0.0
0.0 -0.0017875325085152166 0.0
0.0 -0.0017876689908906383 0.0
0.0 -0.001787507643683119 0.0
0.0 -0.0017876430392153708 0.0
0.0 -0.0017875725195554083 0.0
0.0 -0.0017875612845399062 0.0
0.0 -0.0017876466439532537 0.0
0.0 -0.0017875146179069433 0.0
0.0 -0.0017876555390909014 0.0
0.0 -0.0017875428240840719 0.0
0.0 -0.0017876003249488832 0.0
0.0 -0.0017876093182493155 0.0
0.0 -0.001787539374327792 0.0
0.0 -0.0017876509780731078 0.0
0.0 -0.001787524932476493 0.0
0.0 -0.0017876371505520256 0.0
0.0 -0.0017875619027128377 0.0
0.0 -0.001787586480516942 0.0
0.0 -0.001787615054167672 0.0
0.0 -0.0017875413949215721 0.0
0.0 -0.001787644188835319 0.0
0.0 -0.001787532328028029 0.0
0.0 -0.0017876331238336084 0.0
0.0 -0.001787560092220137 0.0
0.0 -0.0017875945613931084 0.0
0.0 -0.0017876024281860182 0.0
0.0 -0.001787555339725059 0.0
0.0 -0.0017876328748615972 0.0
0.0 -0.001787537434499462 0.0
0.0 -0.001787636689574709 0.0
0.0 -0.001787547151758731 0.0
0.0 -0.0017876157642481758 0.0
0.0 -0.0017875757775941202 0.0
0.0 -0.0017875835348001791 0.0
0.0 -0.0017876075451506888 0.0
0.0 -0.0017875557997221736 0.0
0.0 -0.0017876285434321208 0.0
0.0 -0.0017875432184069223 0.0
0.0 -0.0017876321100464246 0.0
0.0 -0.0017875482997290004 0.0
0.0 -0.0017876195544415476 0.0
0.0 -0.001787566606949124 0.0
0.0 -0.0017875975419609188 0.0
0.0 -0.0017875902131438283 0.0
0.0 -0.0017875743416629966 0.0
0.0 -0.0017876112943173786 0.0
0.0 -0.0017875567289466743 0.0
0.0 -0.0017876245229169626 0.0
0.0 -0.0017875483837526815 0.0
0.0 -0.001787627890300949 0.0
0.0 -0.0017875497608684954 0.0
0.0 -0.0017876222770280403 0.0
0.0 -0.001787558924007638 0.0
0.0 -0.0017876103704026903 0.0
0.0 -0.0017875727349500419 0.0
0.0 -0.0017875954863287237 0.0
0.0 -0.0017875879317357513 0.0
0.0 -0.001787580650648482 0.0
0.0 -0.001787601855290494 0.0
0.0 -0.0017875680741553754 0.0
0.0 -0.0017876127809632412 0.0
0.0 -0.001787558993808857 0.0
0.0 -0.0017876199328544712 0.0
0.0 -0.0017875537711667913 0.0
0.0 -0.0017876233044036478 0.0
0.0 -0.0017875521233142052 0.0
0.0 -0.00178762340154602 0.0
0.0 -0.0017875533846919867 0.0
0.0 -0.0017876209919283172 0.0
0.0 -0.0017875567355000246 0.0
0.0 -0.0017876169060240079 0.0
0.0 -0.0017875613674703315 0.0
0.0 -0.0017876119052416283 0.0
0.0 -0.0017875665832178418 0.0
0.0 -0.0017876066123161895 0.0
0.0 -0.0017875718398005036 0.0
0.0 -0.0017876014896704923 0.0
0.0 -0.0017875767526406734 0.0
0.0 -0.0017875968491889627 0.0
0.0 -0.0017875810757229616 0.0
0.0 -0.0017875928788370192 0.0
0.0 -0.0017875846708680246 0.0
0.0 -0.0017875896752854543 0.0
0.0 -0.0017875874749459808 0.0
0.0 -0.0017875872755488676 0.0
0.0 -0.0017875894703308106 0.0
0.0 -0.001787585683795873 0.0
0.0 -0.00178759066122763 0.0
0.0 -0.0017875848916637373 0.0
0.0 -0.0017875848916637399 0.0
0.0 -0.0017875906612276292 0.0
0.0 -0.0017875856837958617 0.0
0.0 -0.0017875894703308247 0.0
0.0 -0.0017875872755488769 0.0
0.0 -0.0017875874749459847 0.0
0.0 -0.0017875896752854647 0.0
0.0 -0.001787584670868042 0.0
0.0 -0.0017875928788370103 0.0
0.0 -0.0017875810757229603 0.0
0.0 -0.0017875968491889516 0.0
0.0 -0.0017875767526406793 0.0
0.0 -0.0017876014896705031 0.0
0.0 -0.0017875718398004934 0.0
0.0 -0.0017876066123161927 0.0
0.0 -0.001787566583217836 0.0
0.0 -0.0017876119052416396 0.0
0.0 -0.001787561367470317 0.0
0.0 -0.0017876169060240168 0.0
0.0 -0.001787556735500017 0.0
0.0 -0.001787620991928318 0.0
0.0 -0.001787553384692007 0.0
0.0 -0.0017876234015460231 0.0
0.0 -0.0017875521233141985 0.0
0.0 -0.001787623304403632 0.0
0.0 -0.0017875537711667896 0.0
0.0 -0.0017876199328544667 0.0
0.0 -0.001787558993808849 0.0
0.0 -0.001787612780963231 0.0
0.0 -0.0017875680741553613 0.0
0.0 -0.001787601855290479 0.0
0.0 -0.0017875806506484815 0.0
0.0 -0.0017875879317357445 0.0
0.0 -0.0017875954863287246 0.0
0.0 -0.0017875727349500562 0.0
0.0 -0.001787610370402711 0.0
0.0 -0.0017875589240076348 0.0
0.0 -0.0017876222770280305 0.0
0.0 -0.001787549760868498 0.0
0.0 -0.0017876278903009295 0.0
0.0 -0.0017875483837526637 0.0
0.0 -0.0017876245229169617 0.0
0.0 -0.0017875567289466813 0.0
0.0 -0.0017876112943173825 0.0
0.0 -0.0017875743416630276 0.0
0.0 -0.0017875902131438382 0.0
0.0 -0.0017875975419609368 0.0
0.0 -0.0017875666069491168 0.0
0.0 -0.0017876195544415426 0.0
0.0 -0.0017875482997289837 0.0
0.0 -0.0017876321100464346 0.0
0.0 -0.0017875432184069268 0.0
0.0 -0.00178762854343212 0.0
0.0 -0.0017875557997222007 0.0
0.0 -0.001787607545150676 0.0
0.0 -0.0017875835348001828 0.0
0.0 -0.001787575777594121 0.0
0.0 -0.001787615764248185 0.0
0.0 -0.001787547151758739 0.0
0.0 -0.0017876366895747094 0.0
0.0 -0.001787537434499474 0.0
0.0 -0.0017876328748615512 0.0
0.0 -0.0017875553397250646 0.0
0.0 -0.0017876024281860126 0.0
0.0 -0.0017875945613931162 0.0
0.0 -0.001787560092220153 0.0
0.0 -0.0017876331238336008 0.0
0.0 -0.0017875323280280243 0.0
0.0 -0.0017876441888353223 0.0
0.0 -0.0017875413949215862 0.0
0.0 -0.0017876150541676654 0.0
0.0 -0.0017875864805169369 0.0
0.0 -0.001787561902712818 0.0
0.0 -0.0017876371505520317 0.0
0.0 -0.001787524932476489 0.0
0.0 -0.0017876509780731032 0.0
0.0 -0.0017875393743278115 0.0
0.0 -0.001787609318249317 0.0
0.0 -0.0017876003249489034 0.0
0.0 -0.001787542824084065 0.0
0.0 -0.001787655539090899 0.0
0.0 -0.0017875146179069474 0.0
0.0 -0.0017876466439532388 0.0
0.0 -0.001787561284539919 0.0
0.0 -0.0017875725195553892 0.0
0.0 -0.0017876430392153922 0.0
0.0 -0.0017875076436831118 0.0
0.0 -0.0017876689908906385 0.0
0.0 -0.00178753250851524 0.0
0.0 -0.001787597076959223 0.0
0.0 -0.0017876309780894412 0.0
0.0 -0.0017875044008880301 0.0
0.0 -0.0017876837145871002 0.0
0.0 -0.0017875149061586744 0.0
0.0 -0.0017876081113807312 0.0
0.0 -0.0017876320002473782 0.0
0.0 -0.001787492794410782 0.0
0.0 -0.0017876976596150973 0.0
0.0 -0.0017875094199301716 0.0
0.0 -0.0017875980129427405 0.0
0.0 -0.001787655652069745 0.0
0.0 -0.0017874676458278051 0.0
0.0 -0.0017877072300220187 0.0
0.0 -0.0017875276734408648 0.0
0.0 -0.0017875539339674742 0.0
0.0 -0.001787706006980963 0.0
0.0 -0.0017874407860733839 0.0
0.0 -0.001787686691345565 0.0
0.0 -0.0017875960867271767 0.0
0.0 -0.0017874679073160316 0.0
0.0 -0.0017877593600386856 0.0
0.0 -0.0017874626000373543 0.0
0.0 -0.0017875858045782302 0.0
0.0 -0.0017877276538941199 0.0
0.0 -0.0017873872335107586 0.0
0.0 -0.001787722574252633 0.0
0.0 -0.001787616609112356 0.0
0.0 -0.001787399115956749 0.0
0.0 -0.0017878184769234654 0.0
0.0 -0.001787479120493869 0.0
0.0 -0.0017874803050606824 0.0
0.0 -0.0017878525018397897 0.0
0.0 -0.0017873566958962644 0.0
0.0 -0.0017875952287395261 0.0
0.0 -0.0017878360168817238 0.0
0.0 -0.0017872642825498561 0.0
0.0 -0.00178771442759504 0.0
0.0 -0.0017877952442110795 0.0
0.0 -0.0017871939462984464 0.0
0.0 -0.0017878225649730678 0.0
0.0 -0.0017877590982440612 0.0
0.0 -0.0017871247087550579 0.0
0.0 -0.0017879137669042273 0.0
0.0 -0.0017877574625357173 0.0
0.0 -0.0017870314058759046 0.0
0.0 -0.0017879788638106738 0.0
0.0 -0.0017878275537677691 0.0
0.0 -0.0017868947761750854 0.0
0.0 -0.0017879846951863202 0.0
0.0 -0.0017880206144082343 0.0
0.0 -0.0017867252978394097 0.0
0.0 -0.0017878443004771846 0.0
0.0 -0.001788387831910947 0.0
0.0 -0.00178662278485381 0.0
0.0 -0.0017873960837956776 0.0
0.0 -0.0017888920878331646 0.0
0.0 -0.0017868785273791612 0.0
0.0 -0.001786487064364721 0.0
0.0 -0.001789165712269231 0.0
0.0 -0.0017879906734101089 0.0
0.0 -0.0017854017980407542 0.0
0.0 -0.0017882147445414088 0.0
0.0 -0.001790052854136016 0.0
0.0 -0.001785747588745205 0.0
0.0 -0.0017850960410476626 0.0
0.0 -0.0017907730351069055 0.0
0.0 -0.0017900437478609184 0.0
0.0 -0.0017828457255876025 0.0
0.0 -0.0017849006759420804 0.0
0.0 -0.0017942936595409028 0.0
0.0 -0.001791398650247552 0.0
0.0 -0.001778326160227018 0.0
0.0 -0.0017804371588323084 0.0
0.0 -0.0017996101926661741 0.0
0.0 -0.0018030046472393528 0.0
0.0 -0.0017756299921929506 0.0
0.0 -0.0017546844275386877 0.0
0.0 -0.0017841135947267027 0.0
0.0 -0.0018442716203740169 0.0
0.0 -0.0018482377546466732 0.0
0.0 -0.0017120256151129396 0.0
0.0 -0.0014235395018903957 0.0
0.0 -0.0010482429013455434 0.0
0.0 -0.000680037640894535 0.0
0.0 -0.0003878428362103973 0.0
0.0 -0.00019405445651909326 0.0
0.0 -8.484488293734896e-05 0.0
0.0 -3.217091974528314e-05 0.0
0.0 -1.043083527437444e-05 0.0
0.0 -2.8153140630964456e-06 0.0
0.0 -5.968884032343905e-07 0.0
0.0 -8.375289965396337e-08 0.0
0.0 -7.765882935233245e-10 0.0
0.0 3.51533448636535e-09 0.0
0.0 1.064107395955606e-09 0.0
0.0 1.4176046658754412e-10 0.0
0.0 -7.547647992986497e-12 0.0
0.0 -7.370508834544393e-12 0.0
0.0 -1.310554943451609e-12 0.0
0.0 1.195897651916345e-14 0.0
0.0 5.0032271920860285e-14 0.0
0.0 8.205989457162792e-15 0.0
0.0 -4.314908260846923e-16 0.0
0.0 -3.42326852070361e-16 0.0
0.0 -3.194705399611873e-17 0.0
0.0 7.183756507816785e-18 0.0
0.0 1.8355834266919654e-18 0.0
0.0 -3.503576300714683e-20 0.0
0.0 -6.11191434073124e-20 0.0
0.0 -6.111914340720732e-20 0.0
0.0 -3.5035763007226776e-20 0.0
0.0 1.835583426683141e-18 0.0
0.0 7.183756507794993e-18 0.0
0.0 -3.1947053995757814e-17 0.0
0.0 -3.4232685206771187e-16 0.0
0.0 -4.3149082608812514e-16 0.0
0.0 8.205989457030393e-15 0.0
0.0 5.003227192031667e-14 0.0
0.0 1.1958976521237628e-14 0.0
0.0 -1.310554943421973e-12 0.0
0.0 -7.37050883444093e-12 0.0
0.0 -7.547647993214203e-12 0.0
0.0 1.417604665832751e-10 0.0
0.0 1.0641073959338137e-09 0.0
0.0 3.5153344863258056e-09 0.0
0.0 -7.765882932741079e-10 0.0
0.0 -8.375289965120776e-08 0.0
0.0 -5.968884032189748e-07 0.0
0.0 -2.8153140630328474e-06 0.0
0.0 -1.0430835274162662e-05 0.0
0.0 -3.2170919744695164e-05 0.0
0.0 -8.484488293596499e-05 0.0
0.0 -0.0001940544565162608 0.0
0.0 -0.00038784283620542956 0.0
0.0 -0.0006800376408868134 0.0
0.0 -0.0010482429013356695 0.0
0.0 -0.001423539501880494 0.0
0.0 -0.0017120256151060473 0.0
0.0 -0.0018482377546446558 0.0
0.0 -0.001844271620375799 0.0
0.0 -0.0017841135947289123 0.0
0.0 -0.0017546844275387419 0.0
0.0 -0.001775629992191439 0.0
0.0 -0.0018030046472386685 0.0
0.0 -0.0017996101926670439 0.0
0.0 -0.0017804371588330623 0.0
0.0 -0.001778326160226501 0.0
0.0 -0.0017913986502468679 0.0
0.0 -0.00179429365954125 0.0
0.0 -0.0017849006759426307 0.0
0.0 -0.0017828457255872842 0.0
0.0 -0.0017900437478604908 0.0
0.0 -0.0017907730351072314 0.0
0.0 -0.0017850960410479523 0.0
0.0 -0.0017857475887448659 0.0
0.0 -0.0017900528541358524 0.0
0.0 -0.001788214744541753 0.0
0.0 -0.0017854017980407507 0.0
0.0 -0.0017879906734098025 0.0
0.0 -0.0017891657122693662 0.0
0.0 -0.0017864870643649066 0.0
0.0 -0.0017868785273789248 0.0
0.0 -0.0017888920878331323 0.0
0.0 -0.001787396083795891 0.0
0.0 -0.0017866227848537023 0.0
0.0 -0.0017883878319108289 0.0
0.0 -0.0017878443004773598 0.0
0.0 -0.0017867252978393743 0.0
0.0 -0.0017880206144080806 0.0
0.0 -0.0017879846951864534 0.0
0.0 -0.0017868947761750906 0.0
0.0 -0.0017878275537676412 0.0
0.0 -0.0017879788638107933 0.0
0.0 -0.0017870314058759337 0.0
0.0 -0.0017877574625356036 0.0
0.0 -0.001787913766904309 0.0
0.0 -0.0017871247087550659 0.0
0.0 -0.0017877590982439673 0.0
0.0 -0.0017878225649731634 0.0
0.0 -0.0017871939462984483 0.0
0.0 -0.0017877952442110013 0.0
0.0 -0.0017877144275951352 0.0
0.0 -0.001787264282549833 0.0
0.0 -0.001787836016881675 0.0
0.0 -0.0017875952287396135 0.0
0.0 -0.0017873566958962286 0.0
0.0 -0.0017878525018397643 0.0
0.0 -0.0017874803050607528 0.0
0.0 -0.0017874791204938092 0.0
0.0 -0.0017878184769234981 0.0
0.0 -0.001787399115956783 0.0
0.0 -0.00178761660911229 0.0
0.0 -0.001787722574252676 0.0
0.0 -0.0017873872335107562 0.0
0.0 -0.0017877276538940696 0.0
0.0 -0.0017875858045782785 0.0
0.0 -0.001787462600037327 0.0
0.0 -0.001787759360038688 0.0
0.0 -0.0017874679073160708 0.0
0.0 -0.0017875960867271428 0.0
0.0 -0.0017876866913456094 0.0
0.0 -0.0017874407860733808 0.0
0.0 -0.0017877060069809417 0.0
0.0 -0.001787553933967513 0.0
0.0 -0.0017875276734408425 0.0
0.0 -0.0017877072300220358 0.0
0.0 -0.0017874676458278275 0.0
0.0 -0.0017876556520697263 0.0
0.0 -0.0017875980129427801 0.0
0.0 -0.0017875094199301673 0.0
0.0 -0.0017876976596151132 0.0
0.0 -0.0017874927944108044 0.0
0.0 -0.0017876320002473487 0.0
0.0 -0.001787608111380747 0.0
0.0 -0.0017875149061586555 0.0
0.0 -0.0017876837145871097 0.0
0.0 -0.0017875044008880453 0.0
0.0 -0.001787630978089419 0.0
0.0 -0.0017875970769592516 0.0
0.0 -0.0017875325085152341 0.0
0.0 -0.0017876689908906404 0.0
0.0 -0.0017875076436831279 0.0
0.0 -0.0017876430392153874 0.0
0.0 -0.0017875725195554072 0.0
0.0 -0.0017875612845399097 0.0
0.0 -0.0017876466439532561 0.0
0.0 -0.001787514617906947 0.0
0.0 -0.0017876555390908932 0.0
0.0 -0.0017875428240840823 0.0
0.0 -0.0017876003249488886 0.0
0.0 -0.0017876093182493198 0.0
0.0 -0.001787539374327807 0.0
0.0 -0.0017876509780731119 0.0
0.0 -0.001787524932476494 0.0
0.0 -0.0017876371505520367 0.0
0.0 -0.0017875619027128418 0.0
0.0 -0.001787586480516941 0.0
0.0 -0.001787615054167677 0.0
0.0 -0.0017875413949215776 0.0
0.0 -0.0017876441888353216 0.0
0.0 -0.0017875323280280345 0.0
0.0 -0.0017876331238335912 0.0
0.0 -0.0017875600922201648 0.0
0.0 -0.0017875945613931138 0.0
0.0 -0.0017876024281860145 0.0
0.0 -0.0017875553397250661 0.0
0.0 -0.0017876328748615763 0.0
0.0 -0.0017875374344994747 0.0
0.0 -0.001787636689574716 0.0
0.0 -0.0017875471517587531 0.0
0.0 -0.001787615764248172 0.0
0.0 -0.001787575777594126 0.0
0.0 -0.00178758353480018 0.0
0.0 -0.0017876075451506738 0.0
0.0 -0.0017875557997221983 0.0
0.0 -0.0017876285434321217 0.0
0.0 -0.0017875432184069223 0.0
0.0 -0.001787632110046425 0.0
0.0 -0.0017875482997289905 0.0
0.0 -0.0017876195544415333 0.0
0.0 -0.0017875666069491242 0.0
0.0 -0.0017875975419609324 0.0
0.0 -0.0017875902131438417 0.0
0.0 -0.0017875743416630211 0.0
0.0 -0.0017876112943173853 0.0
0.0 -0.001787556728946682 0.0
0.0 -0.0017876245229169624 0.0
0.0 -0.0017875483837526665 0.0
0.0 -0.0017876278903009343 0.0
0.0 -0.001787549760868507 0.0
0.0 -0.0017876222770280357 0.0
0.0 -0.001787558924007643 0.0
0.0 -0.0017876103704027142 0.0
0.0 -0.0017875727349500605 0.0
0.0 -0.0017875954863287304 0.0
0.0 -0.0017875879317357634 0.0
0.0 -0.0017875806506484934 0.0
0.0 -0.0017876018552904827 0.0
0.0 -0.001787568074155369 0.0
0.0 -0.0017876127809632234 0.0
0.0 -0.0017875589938088376 0.0
0.0 -0.0017876199328544756 0.0
0.0 -0.0017875537711668017 0.0
0.0 -0.0017876233044036367 0.0
0.0 -0.0017875521233141926 0.0
0.0 -0.0017876234015460105 0.0
0.0 -0.001787553384692004 0.0
0.0 -0.001787620991928319 0.0
0.0 -0.0017875567355000101 0.0
0.0 -0.0017876169060240172 0.0
0.0 -0.0017875613674703222 0.0
0.0 -0.0017876119052416277 0.0
0.0 -0.0017875665832178343 0.0
0.0 -0.0017876066123161953 0.0
0.0 -0.001787571839800503 0.0
0.0 -0.0017876014896705005 0.0
0.0 -0.0017875767526406823 0.0
0.0 -0.0017875968491889555 0.0
0.0 -0.0017875810757229595 0.0
0.0 -0.0017875928788370042 0.0
0.0 -0.0017875846708680435 0.0
0.0 -0.001787589675285456 0.0
0.0 -0.0017875874749459684 0.0
0.0 -0.0017875872755488786 0.0
0.0 -0.0017875894703308249 0.0
0.0 -0.0017875856837958688 0.0
0.0 -0.0017875906612276377 0.0
0.0 -0.0017875848916637368 0.0
0.0 -0.0017875848916637507 0.0
0.0 -0.0017875906612276277 0.0
0.0 -0.0017875856837958688 0.0
0.0 -0.0017875894703308127 0.0
0.0 -0.0017875872755488745 0.0
0.0 -0.001787587474945988 0.0
0.0 -0.0017875896752854656 0.0
0.0 -0.0017875846708680376 0.0
0.0 -0.0017875928788370213 0.0
0.0 -0.0017875810757229636 0.0
0.0 -0.0017875968491889555 0.0
0.0 -0.0017875767526406758 0.0
0.0 -0.0017876014896705031 0.0
0.0 -0.0017875718398005025 0.0
0.0 -0.001787606612316177 0.0
0.0 -0.0017875665832178312 0.0
0.0 -0.0017876119052416194 0.0
0.0 -0.001787561367470331 0.0
0.0 -0.0017876169060240053 0.0
0.0 -0.0017875567355000227 0.0
0.0 -0.0017876209919283298 0.0
0.0 -0.0017875533846919971 0.0
0.0 -0.0017876234015460225 0.0
0.0 -0.0017875521233142097 0.0
0.0 -0.0017876233044036376 0.0
0.0 -0.0017875537711667876 0.0
0.0 -0.0017876199328544682 0.0
0.0 -0.0017875589938088573 0.0
0.0 -0.0017876127809632386 0.0
0.0 -0.0017875680741553659 0.0
0.0 -0.0017876018552904804 0.0
0.0 -0.0017875806506484895 0.0
0.0 -0.001787587931735761 0.0
0.0 -0.0017875954863287328 0.0
0.0 -0.001787572734950051 0.0
0.0 -0.001787610370402692 0.0
0.0 -0.001787558924007644 0.0
0.0 -0.001787622277028038 0.0
0.0 -0.0017875497608685026 0.0
0.0 -0.001787627890300952 0.0
0.0 -0.001787548383752684 0.0
0.0 -0.0017876245229169762 0.0
0.0 -0.0017875567289466834 0.0
0.0 -0.0017876112943173927 0.0
0.0 -0.0017875743416630036 0.0
0.0 -0.001787590213143843 0.0