# vtk DataFile Version 2.0
data_897
ASCII
DATASET UNSTRUCTURED_GRID
POINTS 804 float
0.0 0.0 0.0
0.1 0.0 0.0
0.1 20.0 0.0
0.0 20.0 0.0
0.0 0.0 -0.1
0.1 0.0 -0.1
0.1 20.0 -0.1
0.0 20.0 -0.1
0.1 0.09999999999992462 0.0
0.1 0.1999999999998517 0.0
0.1 0.2999999999997818 0.0
0.1 0.399999999999712 0.0
0.1 0.4999999999996377 0.0
0.1 0.5999999999995541 0.0
0.1 0.6999999999994495 0.0
0.1 0.7999999999993355 0.0
0.1 0.8999999999992101 0.0
0.1 0.999999999999102 0.0
0.1 1.099999999999006 0.0
0.1 1.199999999998936 0.0
0.1 1.299999999998867 0.0
0.1 1.399999999998797 0.0
0.1 1.499999999998727 0.0
0.1 1.599999999998657 0.0
0.1 1.699999999998587 0.0
0.1 1.799999999998517 0.0
0.1 1.899999999998447 0.0
0.1 1.999999999998378 0.0
0.1 2.099999999998308 0.0
0.1 2.199999999998238 0.0
0.1 2.299999999998168 0.0
0.1 2.399999999998067 0.0
0.1 2.499999999997942 0.0
0.1 2.599999999997706 0.0
0.1 2.699999999997444 0.0
0.1 2.799999999997153 0.0
0.1 2.899999999996861 0.0
0.1 2.999999999996569 0.0
0.1 3.099999999996277 0.0
0.1 3.199999999995984 0.0
0.1 3.299999999995693 0.0
0.1 3.399999999995401 0.0
0.1 3.499999999995108 0.0
0.1 3.599999999994816 0.0
0.1 3.699999999994525 0.0
0.1 3.799999999994232 0.0
0.1 3.89999999999394 0.0
0.1 3.999999999993648 0.0
0.1 4.099999999993356 0.0
0.1 4.199999999993064 0.0
0.1 4.299999999992772 0.0
0.1 4.399999999992479 0.0
0.1 4.499999999992188 0.0
0.1 4.599999999991895 0.0
0.1 4.699999999991603 0.0
0.1 4.799999999991311 0.0
0.1 4.899999999991019 0.0
0.1 4.999999999990727 0.0
0.1 5.099999999990436 0.0
0.1 5.199999999990144 0.0
0.1 5.299999999989851 0.0
0.1 5.399999999989559 0.0
0.1 5.499999999989267 0.0
0.1 5.599999999988975 0.0
0.1 5.699999999988683 0.0
0.1 5.799999999988391 0.0
0.1 5.899999999988099 0.0
0.1 5.999999999987806 0.0
0.1 6.099999999987515 0.0
0.1 6.199999999987222 0.0
0.1 6.299999999986929 0.0
0.1 6.399999999986638 0.0
0.1 6.499999999986345 0.0
0.1 6.599999999986054 0.0
0.1 6.699999999985762 0.0
0.1 6.79999999998547 0.0
0.1 6.899999999985177 0.0
0.1 6.999999999984885 0.0
0.1 7.099999999984593 0.0
0.1 7.199999999984302 0.0
0.1 7.299999999984009 0.0
0.1 7.399999999983717 0.0
0.1 7.499999999983426 0.0
0.1 7.599999999983132 0.0
0.1 7.699999999982841 0.0
0.1 7.799999999982549 0.0
0.1 7.899999999982256 0.0
0.1 7.999999999982034 0.0
0.1 8.099999999981964 0.0
0.1 8.199999999982062 0.0
0.1 8.299999999982214 0.0
0.1 8.399999999982366 0.0
0.1 8.499999999982517 0.0
0.1 8.59999999998267 0.0
0.1 8.699999999982822 0.0
0.1 8.799999999982973 0.0
0.1 8.899999999983125 0.0
0.1 8.999999999983277 0.0
0.1 9.09999999998343 0.0
0.1 9.19999999998358 0.0
0.1 9.299999999983733 0.0
0.1 9.399999999983885 0.0
0.1 9.499999999984038 0.0
0.1 9.599999999984188 0.0
0.1 9.69999999998434 0.0
0.1 9.799999999984493 0.0
0.1 9.899999999984646 0.0
0.1 9.999999999984798 0.0
0.1 10.09999999998495 0.0
0.1 10.1999999999851 0.0
0.1 10.29999999998525 0.0
0.1 10.39999999998541 0.0
0.1 10.49999999998556 0.0
0.1 10.59999999998571 0.0
0.1 10.69999999998586 0.0
0.1 10.79999999998601 0.0
0.1 10.89999999998616 0.0
0.1 10.99999999998632 0.0
0.1 11.09999999998647 0.0
0.1 11.19999999998662 0.0
0.1 11.29999999998677 0.0
0.1 11.39999999998693 0.0
0.1 11.49999999998708 0.0
0.1 11.59999999998723 0.0
0.1 11.69999999998738 0.0
0.1 11.79999999998754 0.0
0.1 11.89999999998769 0.0
0.1 11.99999999998784 0.0
0.1 12.09999999998799 0.0
0.1 12.19999999998814 0.0
0.1 12.2999999999883 0.0
0.1 12.39999999998845 0.0
0.1 12.4999999999886 0.0
0.1 12.59999999998875 0.0
0.1 12.6999999999889 0.0
0.1 12.79999999998905 0.0
0.1 12.89999999998921 0.0
0.1 12.99999999998936 0.0
0.1 13.09999999998951 0.0
0.1 13.19999999998966 0.0
0.1 13.29999999998982 0.0
0.1 13.39999999998997 0.0
0.1 13.49999999999012 0.0
0.1 13.59999999999027 0.0
0.1 13.69999999999042 0.0
0.1 13.79999999999057 0.0
0.1 13.89999999999073 0.0
0.1 13.99999999999088 0.0
0.1 14.09999999999103 0.0
0.1 14.19999999999118 0.0
0.1 14.29999999999134 0.0
0.1 14.39999999999149 0.0
0.1 14.49999999999164 0.0
0.1 14.59999999999179 0.0
0.1 14.69999999999194 0.0
0.1 14.7999999999921 0.0
0.1 14.89999999999225 0.0
0.1 14.9999999999924 0.0
0.1 15.09999999999255 0.0
0.1 15.1999999999927 0.0
0.1 15.29999999999285 0.0
0.1 15.39999999999301 0.0
0.1 15.49999999999316 0.0
0.1 15.59999999999331 0.0
0.1 15.69999999999346 0.0
0.1 15.79999999999362 0.0
0.1 15.89999999999377 0.0
0.1 15.99999999999392 0.0
0.1 16.09999999999407 0.0
0.1 16.19999999999422 0.0
0.1 16.29999999999437 0.0
0.1 16.39999999999453 0.0
0.1 16.49999999999468 0.0
0.1 16.59999999999483 0.0
0.1 16.69999999999498 0.0
0.1 16.79999999999514 0.0
0.1 16.89999999999528 0.0
0.1 16.99999999999544 0.0
0.1 17.09999999999559 0.0
0.1 17.19999999999574 0.0
0.1 17.29999999999589 0.0
0.1 17.39999999999605 0.0
0.1 17.4999999999962 0.0
0.1 17.59999999999635 0.0
0.1 17.6999999999965 0.0
0.1 17.79999999999665 0.0
0.1 17.89999999999681 0.0
0.1 17.99999999999696 0.0
0.1 18.09999999999711 0.0
0.1 18.19999999999726 0.0
0.1 18.29999999999742 0.0
0.1 18.39999999999757 0.0
0.1 18.49999999999772 0.0
0.1 18.59999999999787 0.0
0.1 18.69999999999802 0.0
0.1 18.79999999999818 0.0
0.1 18.89999999999833 0.0
0.1 18.99999999999848 0.0
0.1 19.09999999999863 0.0
0.1 19.19999999999878 0.0
0.1 19.29999999999894 0.0
0.1 19.39999999999909 0.0
0.1 19.49999999999924 0.0
0.1 19.59999999999939 0.0
0.1 19.69999999999955 0.0
0.1 19.7999999999997 0.0
0.1 19.89999999999985 0.0
0.0 19.9 0.0
0.0 19.8 0.0
0.0 19.7 0.0
0.0 19.6 0.0
0.0 19.5 0.0
0.0 19.4 0.0
0.0 19.3 0.0
0.0 19.2 0.0
0.0 19.1 0.0
0.0 19.0 0.0
0.0 18.9 0.0
0.0 18.8 0.0
0.0 18.7 0.0
0.0 18.6 0.0
0.0 18.5 0.0
0.0 18.4 0.0
0.0 18.3 0.0
0.0 18.2 0.0
0.0 18.1 0.0
0.0 18.0 0.0
0.0 17.9 0.0
0.0 17.8 0.0
0.0 17.7 0.0
0.0 17.6 0.0
0.0 17.5 0.0
0.0 17.4 0.0
0.0 17.3 0.0
0.0 17.2 0.0
0.0 17.09999999999999 0.0
0.0 17.0 0.0
0.0 16.9 0.0
0.0 16.8 0.0
0.0 16.7 0.0
0.0 16.59999999999999 0.0
0.0 16.49999999999999 0.0
0.0 16.4 0.0
0.0 16.29999999999999 0.0
0.0 16.2 0.0
0.0 16.09999999999999 0.0
0.0 15.99999999999999 0.0
0.0 15.89999999999999 0.0
0.0 15.79999999999999 0.0
0.0 15.69999999999999 0.0
0.0 15.59999999999999 0.0
0.0 15.49999999999999 0.0
0.0 15.39999999999999 0.0
0.0 15.29999999999999 0.0
0.0 15.19999999999999 0.0
0.0 15.09999999999999 0.0
0.0 14.99999999999999 0.0
0.0 14.89999999999999 0.0
0.0 14.79999999999999 0.0
0.0 14.69999999999999 0.0
0.0 14.59999999999999 0.0
0.0 14.49999999999999 0.0
0.0 14.39999999999999 0.0
0.0 14.29999999999999 0.0
0.0 14.19999999999999 0.0
0.0 14.09999999999999 0.0
0.0 13.99999999999999 0.0
0.0 13.89999999999999 0.0
0.0 13.79999999999999 0.0
0.0 13.69999999999999 0.0
0.0 13.59999999999999 0.0
0.0 13.49999999999999 0.0
0.0 13.39999999999999 0.0
0.0 13.29999999999999 0.0
0.0 13.19999999999999 0.0
0.0 13.09999999999999 0.0
0.0 12.99999999999999 0.0
0.0 12.89999999999999 0.0
0.0 12.79999999999999 0.0
0.0 12.69999999999999 0.0
0.0 12.59999999999999 0.0
0.0 12.49999999999999 0.0
0.0 12.39999999999999 0.0
0.0 12.29999999999999 0.0
0.0 12.19999999999999 0.0
0.0 12.09999999999999 0.0
0.0 11.99999999999999 0.0
0.0 11.89999999999999 0.0
0.0 11.79999999999999 0.0
0.0 11.69999999999999 0.0
0.0 11.59999999999999 0.0
0.0 11.49999999999999 0.0
0.0 11.39999999999999 0.0
0.0 11.29999999999999 0.0
0.0 11.19999999999999 0.0
0.0 11.09999999999999 0.0
0.0 10.99999999999999 0.0
0.0 10.89999999999999 0.0
0.0 10.79999999999999 0.0
0.0 10.69999999999999 0.0
0.0 10.59999999999999 0.0
0.0 10.49999999999999 0.0
0.0 10.39999999999999 0.0
0.0 10.29999999999999 0.0
0.0 10.19999999999999 0.0
0.0 10.09999999999999 0.0
0.0 9.999999999999993 0.0
0.0 9.899999999999993 0.0
0.0 9.799999999999994 0.0
0.0 9.699999999999992 0.0
0.0 9.599999999999993 0.0
0.0 9.499999999999993 0.0
0.0 9.399999999999993 0.0
0.0 9.299999999999995 0.0
0.0 9.199999999999996 0.0
0.0 9.099999999999994 0.0
0.0 8.999999999999995 0.0
0.0 8.899999999999995 0.0
0.0 8.799999999999994 0.0
0.0 8.699999999999994 0.0
0.0 8.599999999999994 0.0
0.0 8.499999999999995 0.0
0.0 8.399999999999995 0.0
0.0 8.299999999999994 0.0
0.0 8.199999999999994 0.0
0.0 8.099999999999994 0.0
0.0 7.999999999999993 0.0
0.0 7.899999999999995 0.0
0.0 7.799999999999995 0.0
0.0 7.699999999999996 0.0
0.0 7.599999999999996 0.0
0.0 7.499999999999996 0.0
0.0 7.399999999999995 0.0
0.0 7.299999999999995 0.0
0.0 7.199999999999996 0.0
0.0 7.099999999999994 0.0
0.0 6.999999999999995 0.0
0.0 6.899999999999995 0.0
0.0 6.799999999999995 0.0
0.0 6.699999999999996 0.0
0.0 6.599999999999994 0.0
0.0 6.499999999999995 0.0
0.0 6.399999999999997 0.0
0.0 6.299999999999997 0.0
0.0 6.199999999999996 0.0
0.0 6.099999999999996 0.0
0.0 5.999999999999996 0.0
0.0 5.899999999999997 0.0
0.0 5.799999999999997 0.0
0.0 5.699999999999996 0.0
0.0 5.599999999999996 0.0
0.0 5.499999999999996 0.0
0.0 5.399999999999995 0.0
0.0 5.299999999999995 0.0
0.0 5.199999999999996 0.0
0.0 5.099999999999996 0.0
0.0 4.999999999999998 0.0
0.0 4.899999999999999 0.0
0.0 4.799999999999997 0.0
0.0 4.699999999999998 0.0
0.0 4.599999999999998 0.0
0.0 4.499999999999996 0.0
0.0 4.399999999999997 0.0
0.0 4.299999999999997 0.0
0.0 4.199999999999998 0.0
0.0 4.099999999999998 0.0
0.0 3.999999999999996 0.0
0.0 3.899999999999999 0.0
0.0 3.799999999999997 0.0
0.0 3.699999999999996 0.0
0.0 3.599999999999998 0.0
0.0 3.5 0.0
0.0 3.399999999999999 0.0
0.0 3.299999999999997 0.0
0.0 3.199999999999999 0.0
0.0 3.099999999999998 0.0
0.0 3.0 0.0
0.0 2.899999999999999 0.0
0.0 2.799999999999997 0.0
0.0 2.699999999999999 0.0
0.0 2.599999999999998 0.0
0.0 2.499999999999996 0.0
0.0 2.399999999999999 0.0
0.0 2.299999999999997 0.0
0.0 2.199999999999999 0.0
0.0 2.100000000000001 0.0
0.0 2.0 0.0
0.0 1.899999999999999 0.0
0.0 1.800000000000001 0.0
0.0 1.699999999999999 0.0
0.0 1.599999999999998 0.0
0.0 1.5 0.0
0.0 1.399999999999999 0.0
0.0 1.299999999999997 0.0
0.0 1.199999999999999 0.0
0.0 1.099999999999998 0.0
0.0 1.0 0.0
0.0 0.8999999999999986 0.0
0.0 0.8000000000000007 0.0
0.0 0.6999999999999993 0.0
0.0 0.6000000000000014 0.0
0.0 0.5 0.0
0.0 0.3999999999999986 0.0
0.0 0.3000000000000007 0.0
0.0 0.1999999999999993 0.0
[...]
POINT_DATA 804
VECTORS displacement double
0.0 0.0 0.0
0.0 0.0 0.0
0.0 0.0017839944647702554 0.0
0.0 0.0017839944647702465 0.0
0.0 0.0 0.0
0.0 0.0 0.0
0.0 0.00178399446477024 0.0
0.0 0.0017839944647702537 0.0
0.0 3.9701703343916464e-10 0.0
0.0 4.8543459813368145e-11 0.0
0.0 -3.77017587222892e-10 0.0
0.0 -4.177860097002951e-12 0.0
0.0 5.296875744000203e-10 0.0
0.0 1.543030253465482e-10 0.0
0.0 -4.804432688337982e-10 0.0
0.0 -2.762778120092111e-11 0.0
0.0 8.070858159387277e-10 0.0
0.0 2.950620478205017e-10 0.0
0.0 -7.599479128954192e-10 0.0
0.0 -1.1271207726990993e-10 0.0
0.0 1.3006110325454274e-09 0.0
0.0 5.450674993000327e-10 0.0
0.0 -1.3009801118382948e-09 0.0
0.0 -3.917588262652217e-10 0.0
0.0 2.0982462311075545e-09 0.0
0.0 1.134752265574824e-09 0.0
0.0 -2.167175641881922e-09 0.0
0.0 -1.2492940221968203e-09 0.0
0.0 3.1808117328692087e-09 0.0
0.0 2.671133470290206e-09 0.0
0.0 -3.1383039763792007e-09 0.0
0.0 -3.577025314387971e-09 0.0
0.0 3.906203172758674e-09 0.0
0.0 6.333753917303995e-09 0.0
0.0 -2.774925085968831e-09 0.0
0.0 -8.66547065667381e-09 0.0
0.0 1.4761184275220499e-09 0.0
0.0 1.293037046534594e-08 0.0
0.0 3.749998166104438e-09 0.0
0.0 -1.5436561962695326e-08 0.0
0.0 -1.1355686371047888e-08 0.0
0.0 1.6792113832831396e-08 0.0
0.0 2.5149407941565037e-08 0.0
0.0 -9.405175522304194e-09 0.0
0.0 -4.0264450537044505e-08 0.0
0.0 -9.94221499613569e-09 0.0
0.0 5.25726976291156e-08 0.0
0.0 5.0533516378028434e-08 0.0
0.0 -4.064798936245432e-08 0.0
0.0 -1.0439089812226747e-07 0.0
0.0 -2.0066730062087892e-08 0.0
0.0 1.4253560855022414e-07 0.0
0.0 1.5517406364010801e-07 0.0
0.0 -7.917584492623325e-08 0.0
0.0 -3.1905325831675184e-07 0.0
0.0 -1.931853489071204e-07 0.0
0.0 3.1437299473408363e-07 0.0
0.0 6.676017187831971e-07 0.0
0.0 2.4998131360481733e-07 0.0
0.0 -8.36402639251225e-07 0.0
0.0 -1.51100407026098e-06 0.0
0.0 -5.419375549978002e-07 0.0
0.0 2.0138264895278967e-06 0.0
0.0 4.065482338847604e-06 0.0
0.0 2.5546413587391027e-06 0.0
0.0 -3.7748224444988973e-06 0.0
0.0 -1.1391459536234787e-05 0.0
0.0 -1.0752434622811719e-05 0.0
0.0 1.1988995380333487e-05 0.0
0.0 7.07657027560029e-05 0.0
0.0 0.00017465633192813236 0.0
0.0 0.0003243678003058663 0.0
0.0 0.0005115353137057144 0.0
0.0 0.0007209084065239893 0.0
0.0 0.0009343333849189179 0.0
0.0 0.0011349573016090438 0.0
0.0 0.0013103272997477754 0.0
0.0 0.001453748850539615 0.0
0.0 0.0015639947952504633 0.0
0.0 0.0016439311351295258 0.0
0.0 0.001698754359341062 0.0
0.0 0.0017343967635336185 0.0
0.0 0.0017563999255199182 0.0
0.0 0.0017693144383897094 0.0
0.0 0.0017765280541090893 0.0
0.0 0.001780364951549468 0.0
0.0 0.0017823089810233227 0.0
0.0 0.001783247266766026 0.0
0.0 0.001783678543243377 0.0
0.0 0.0017838672188568206 0.0
0.0 0.001783945704949287 0.0
0.0 0.0017839767019575653 0.0
0.0 0.0017839883050382616 0.0
0.0 0.0017839924113225577 0.0
0.0 0.0017839937774019497 0.0
0.0 0.0017839942053282072 0.0
0.0 0.0017839943317379157 0.0
0.0 0.0017839943646440674 0.0
0.0 0.0017839943744442017 0.0
0.0 0.001783994378810242 0.0
0.0 0.0017839943792553792 0.0
0.0 0.0017839943812462931 0.0
0.0 0.0017839943837143243 0.0
0.0 0.0017839943839790492 0.0
0.0 0.0017839943859954174 0.0
0.0 0.0017839943881952753 0.0
0.0 0.001783994388560801 0.0
0.0 0.001783994390612036 0.0
0.0 0.001783994392552066 0.0
0.0 0.001783994393015651 0.0
0.0 0.001783994395084144 0.0
0.0 0.0017839943967832095 0.0
0.0 0.0017839943973355736 0.0
0.0 0.001783994399424768 0.0
0.0 0.0017839944008679416 0.0
0.0 0.0017839944015447524 0.0
0.0 0.0017839944036136814 0.0
0.0 0.0017839944048162533 0.0
0.0 0.00178399440564584 0.0
0.0 0.001783994407638364 0.0
0.0 0.0017839944086433632 0.0
0.0 0.0017839944096287254 0.0
0.0 0.0017839944114995748 0.0
0.0 0.0017839944123571262 0.0
0.0 0.0017839944134818702 0.0
0.0 0.0017839944152076798 0.0
0.0 0.0017839944159497901 0.0
0.0 0.0017839944172125754 0.0
0.0 0.001783994418753701 0.0
0.0 0.0017839944194298937 0.0
0.0 0.001783994420819131 0.0
0.0 0.0017839944221256583 0.0
0.0 0.0017839944228236252 0.0
0.0 0.0017839944242699674 0.0
0.0 0.0017839944253467493 0.0
0.0 0.0017839944261266864 0.0
0.0 0.0017839944275503603 0.0
0.0 0.0017839944284393581 0.0
0.0 0.0017839944293237657 0.0
0.0 0.0017839944306596257 0.0
0.0 0.0017839944314182634 0.0
0.0 0.001783994432396044 0.0
0.0 0.0017839944336114145 0.0
0.0 0.0017839944342767906 0.0
0.0 0.001783994435349361 0.0
0.0 0.001783994436393349 0.0
0.0 0.0017839944370342002 0.0
0.0 0.001783994438166202 0.0
0.0 0.001783994439008972 0.0
0.0 0.001783994439707073 0.0
0.0 0.0017839944408164139 0.0
0.0 0.0017839944414849678 0.0
0.0 0.0017839944422897048 0.0
0.0 0.0017839944432782757 0.0
0.0 0.0017839944438608913 0.0
0.0 0.001783994444745121 0.0
0.0 0.0017839944455671423 0.0
0.0 0.0017839944461497297 0.0
0.0 0.0017839944470410144 0.0
0.0 0.001783994447716161 0.0
0.0 0.0017839944483335089 0.0
0.0 0.001783994449175552 0.0
0.0 0.001783994449739469 0.0
0.0 0.0017839944503990404 0.0
0.0 0.0017839944511517751 0.0
0.0 0.0017839944516439658 0.0
0.0 0.0017839944523372546 0.0
0.0 0.0017839944529725036 0.0
0.0 0.0017839944534343568 0.0
0.0 0.0017839944541428196 0.0
0.0 0.0017839944546331895 0.0
0.0 0.0017839944551309415 0.0
0.0 0.0017839944557844212 0.0
0.0 0.0017839944561625323 0.0
0.0 0.0017839944567230326 0.0
0.0 0.0017839944572480308 0.0
0.0 0.0017839944575920607 0.0
0.0 0.0017839944581797937 0.0
0.0 0.0017839944585436576 0.0
0.0 0.0017839944589428578 0.0
0.0 0.0017839944594550006 0.0
0.0 0.0017839944597229159 0.0
0.0 0.0017839944601812882 0.0
0.0 0.001783994460549479 0.0
0.0 0.001783994460815794 0.0
0.0 0.0017839944612640798 0.0
0.0 0.001783994461495428 0.0
0.0 0.0017839944618198368 0.0
0.0 0.0017839944621608566 0.0
0.0 0.0017839944623432435 0.0
0.0 0.0017839944626873083 0.0
0.0 0.0017839944628959595 0.0
0.0 0.0017839944631003332 0.0
0.0 0.0017839944633862089 0.0
0.0 0.0017839944635071726 0.0
0.0 0.0017839944637436857 0.0
0.0 0.0017839944639121334 0.0
0.0 0.001783994464025021 0.0
0.0 0.001783994464230451 0.0
0.0 0.0017839944643016107 0.0
0.0 0.001783994464434397 0.0
0.0 0.0017839944645502595 0.0
0.0 0.0017839944645823911 0.0
0.0 0.001783994464705978 0.0
0.0 0.0017839944647181406 0.0
0.0 0.0017839944647621384 0.0
0.0 0.001783994464811835 0.0
0.0 0.0017839944648118452 0.0
0.0 0.0017839944647621343 0.0
0.0 0.0017839944647181321 0.0
0.0 0.0017839944647059735 0.0
0.0 0.0017839944645823963 0.0
0.0 0.0017839944645502608 0.0
0.0 0.0017839944644343932 0.0
0.0 0.0017839944643016125 0.0
0.0 0.0017839944642304513 0.0
0.0 0.00178399446402502 0.0
0.0 0.0017839944639121241 0.0
0.0 0.0017839944637436922 0.0
0.0 0.0017839944635071763 0.0
0.0 0.001783994463386201 0.0
0.0 0.0017839944631003303 0.0
0.0 0.0017839944628959504 0.0
0.0 0.001783994462687314 0.0
0.0 0.001783994462343241 0.0
0.0 0.0017839944621608633 0.0
0.0 0.0017839944618198492 0.0
0.0 0.0017839944614954286 0.0
0.0 0.0017839944612640889 0.0
0.0 0.0017839944608158066 0.0
0.0 0.0017839944605494724 0.0
0.0 0.0017839944601812858 0.0
0.0 0.0017839944597229165 0.0
0.0 0.0017839944594549904 0.0
0.0 0.001783994458942843 0.0
0.0 0.0017839944585436606 0.0
0.0 0.0017839944581797712 0.0
0.0 0.0017839944575920611 0.0
0.0 0.001783994457248053 0.0
0.0 0.0017839944567230308 0.0
0.0 0.0017839944561625313 0.0
0.0 0.0017839944557844194 0.0
0.0 0.001783994455130956 0.0
0.0 0.001783994454633196 0.0
0.0 0.0017839944541428402 0.0
0.0 0.0017839944534343583 0.0
0.0 0.0017839944529725 0.0
0.0 0.0017839944523372435 0.0
0.0 0.001783994451643957 0.0
0.0 0.001783994451151761 0.0
0.0 0.0017839944503990394 0.0
0.0 0.0017839944497394622 0.0
0.0 0.0017839944491755625 0.0
0.0 0.0017839944483335072 0.0
0.0 0.0017839944477161663 0.0
0.0 0.00178399444704101 0.0
0.0 0.0017839944461497342 0.0
0.0 0.0017839944455671373 0.0
0.0 0.001783994444745133 0.0
0.0 0.0017839944438608835 0.0
0.0 0.0017839944432782888 0.0
0.0 0.0017839944422897202 0.0
0.0 0.001783994441484971 0.0
0.0 0.0017839944408164256 0.0
0.0 0.0017839944397070534 0.0
0.0 0.0017839944390089743 0.0
0.0 0.0017839944381661873 0.0
0.0 0.001783994437034192 0.0
0.0 0.0017839944363933378 0.0
0.0 0.001783994435349349 0.0
0.0 0.0017839944342767887 0.0
0.0 0.0017839944336114101 0.0
0.0 0.0017839944323960293 0.0
0.0 0.0017839944314182604 0.0
0.0 0.0017839944306596361 0.0
0.0 0.001783994429323774 0.0
0.0 0.0017839944284393564 0.0
0.0 0.0017839944275503561 0.0
0.0 0.0017839944261266926 0.0
0.0 0.0017839944253467443 0.0
0.0 0.00178399442426996 0.0
0.0 0.0017839944228236237 0.0
0.0 0.001783994422125641 0.0
0.0 0.001783994420819127 0.0
0.0 0.0017839944194298965 0.0
0.0 0.0017839944187537078 0.0
0.0 0.0017839944172125546 0.0
0.0 0.0017839944159497832 0.0
0.0 0.001783994415207685 0.0
0.0 0.0017839944134818706 0.0
0.0 0.0017839944123571399 0.0
0.0 0.0017839944114995724 0.0
0.0 0.0017839944096287388 0.0
0.0 0.001783994408643366 0.0
0.0 0.001783994407638371 0.0
0.0 0.0017839944056458514 0.0
0.0 0.001783994404816256 0.0
0.0 0.0017839944036136877 0.0
0.0 0.0017839944015447546 0.0
0.0 0.0017839944008679366 0.0
0.0 0.0017839943994247642 0.0
0.0 0.0017839943973355775 0.0
0.0 0.0017839943967832164 0.0
0.0 0.0017839943950841428 0.0
0.0 0.001783994393015644 0.0
0.0 0.0017839943925520817 0.0
0.0 0.0017839943906120556 0.0
0.0 0.001783994388560806 0.0
0.0 0.0017839943881952747 0.0
0.0 0.001783994385995417 0.0
0.0 0.0017839943839790603 0.0
0.0 0.0017839943837143287 0.0
0.0 0.0017839943812462864 0.0
0.0 0.0017839943792553733 0.0
0.0 0.0017839943788102268 0.0
0.0 0.0017839943744442108 0.0
0.0 0.0017839943646440727 0.0
0.0 0.0017839943317379092 0.0
0.0 0.0017839942053281999 0.0
0.0 0.0017839937774019512 0.0
0.0 0.001783992411322566 0.0
0.0 0.001783988305038265 0.0
0.0 0.0017839767019575741 0.0
0.0 0.0017839457049492761 0.0
0.0 0.0017838672188568681 0.0
0.0 0.001783678543243425 0.0
0.0 0.0017832472667661393 0.0
0.0 0.0017823089810235816 0.0
0.0 0.0017803649515499365 0.0
0.0 0.0017765280541099829 0.0
0.0 0.0017693144383913386 0.0
0.0 0.001756399925522727 0.0
0.0 0.001734396763538183 0.0
0.0 0.0016987543593481407 0.0
0.0 0.0016439311351399632 0.0
0.0 0.0015639947952650099 0.0
0.0 0.0014537488505587703 0.0
0.0 0.0013103272997714865 0.0
0.0 0.0011349573016366003 0.0
0.0 0.000934333384948765 0.0
0.0 0.0007209084065538668 0.0
0.0 0.0005115353137331653 0.0
0.0 0.00032436780032862823 0.0
0.0 0.00017465633194477842 0.0
0.0 7.076570276625207e-05 0.0
0.0 1.1988995385145672e-05 0.0
0.0 -1.0752434621704084e-05 0.0
0.0 -1.1391459536898543e-05 0.0
0.0 -3.7748224454270412e-06 0.0
0.0 2.5546413582687534e-06 0.0
0.0 4.065482338933301e-06 0.0
0.0 2.013826489826547e-06 0.0
0.0 -5.41937554796945e-07 0.0
0.0 -1.5110040702531612e-06 0.0
0.0 -8.364026393599717e-07 0.0
0.0 2.499813135186239e-07 0.0
0.0 6.676017187919434e-07 0.0
0.0 3.1437299478941786e-07 0.0
0.0 -1.931853488713149e-07 0.0
0.0 -3.1905325832863973e-07 0.0
0.0 -7.917584495349584e-08 0.0
0.0 1.551740636297154e-07 0.0
0.0 1.4253560856193863e-07 0.0
0.0 -2.006673005189277e-08 0.0
0.0 -1.04390898118007e-07 0.0
0.0 -4.064798937382035e-08 0.0
0.0 5.053351637725254e-08 0.0
0.0 5.257269763306825e-08 0.0
0.0 -9.942214991379309e-09 0.0
0.0 -4.0264450542296467e-08 0.0
0.0 -9.405175525312074e-09 0.0
0.0 2.514940793942228e-08 0.0
0.0 1.6792113833714385e-08 0.0
0.0 -1.1355686371696924e-08 0.0
0.0 -1.543656196815881e-08 0.0
0.0 3.749998166148092e-09 0.0
0.0 1.2930370461309669e-08 0.0
0.0 1.4761184303658793e-09 0.0
0.0 -8.665470658739066e-09 0.0
0.0 -2.7749250864553196e-09 0.0
0.0 6.3337539171481175e-09 0.0
0.0 3.906203174785377e-09 0.0
0.0 -3.5770253143939768e-09 0.0
0.0 -3.138303975716544e-09 0.0
0.0 2.671133467651636e-09 0.0
0.0 3.180811732611398e-09 0.0
0.0 -1.2492940220081406e-09 0.0
0.0 -2.1671756418852724e-09 0.0
0.0 1.1347522679146181e-09 0.0
0.0 2.0982462316372806e-09 0.0
0.0 -3.9175882648586643e-10 0.0
0.0 -1.3009801114774693e-09 0.0
0.0 5.450674985437878e-10 0.0
0.0 1.3006110332667504e-09 0.0
0.0 -1.1271207888693305e-10 0.0
0.0 -7.599479140041544e-10 0.0
0.0 2.9506204871595833e-10 0.0
0.0 8.070858151351302e-10 0.0
0.0 -2.762778065050204e-11 0.0
0.0 -4.804432710996131e-10 0.0
0.0 1.5430302263886018e-10 0.0
0.0 5.296875743949236e-10 0.0
0.0 -4.1778601499542016e-12 0.0
0.0 -3.7701758859894415e-10 0.0
0.0 4.854346087754367e-11 0.0
0.0 3.97017033960282e-10 0.0
0.0 3.970170315793958e-10 0.0
0.0 4.854345970390065e-11 0.0
0.0 -3.77017585844127e-10 0.0
0.0 -4.177856126683778e-12 0.0
0.0 5.296875753532193e-10 0.0
0.0 1.5430302381272976e-10 0.0
0.0 -4.804432693023923e-10 0.0
0.0 -2.76277817167241e-11 0.0
0.0 8.070858158092746e-10 0.0
0.0 2.9506204917218504e-10 0.0
0.0 -7.599479122372535e-10 0.0
0.0 -1.1271207950465023e-10 0.0
0.0 1.300611030770949e-09 0.0
0.0 5.450674994008709e-10 0.0
0.0 -1.3009801121706378e-09 0.0
0.0 -3.9175883060665293e-10 0.0
0.0 2.098246228547454e-09 0.0
0.0 1.1347522666257183e-09 0.0
0.0 -2.167175642656594e-09 0.0
0.0 -1.2492940228735893e-09 0.0
0.0 3.180811733007451e-09 0.0
0.0 2.6711334671768102e-09 0.0
0.0 -3.138303975204179e-09 0.0
0.0 -3.577025313267671e-09 0.0
0.0 3.906203175415617e-09 0.0
0.0 6.3337539170417445e-09 0.0
0.0 -2.7749250858239906e-09 0.0
0.0 -8.665470658201142e-09 0.0
0.0 1.476118432977678e-09 0.0
0.0 1.2930370462867174e-08 0.0
0.0 3.74999816649e-09 0.0
0.0 -1.5436561965960215e-08 0.0
0.0 -1.1355686371486034e-08 0.0
0.0 1.6792113832690974e-08 0.0
0.0 2.5149407940031156e-08 0.0
0.0 -9.405175523672508e-09 0.0
0.0 -4.0264450535930174e-08 0.0
0.0 -9.942214994033435e-09 0.0
0.0 5.257269763148341e-08 0.0
0.0 5.053351638200139e-08 0.0
0.0 -4.064798936536018e-08 0.0
0.0 -1.0439089812350095e-07 0.0
0.0 -2.00667300683791e-08 0.0
0.0 1.4253560854708858e-07 0.0
0.0 1.5517406363664828e-07 0.0
0.0 -7.917584492612739e-08 0.0
0.0 -3.190532583203269e-07 0.0
0.0 -1.931853489037211e-07 0.0
0.0 3.143729947362141e-07 0.0
0.0 6.676017187894588e-07 0.0
0.0 2.49981313597313e-07 0.0
0.0 -8.364026392580656e-07 0.0
0.0 -1.511004070256062e-06 0.0
0.0 -5.419375550006271e-07 0.0
0.0 2.0138264895281004e-06 0.0
0.0 4.0654823388510855e-06 0.0
0.0 2.554641358727461e-06 0.0
0.0 -3.77482244449131e-06 0.0
0.0 -1.1391459536236495e-05 0.0
0.0 -1.0752434622818093e-05 0.0
0.0 1.1988995380329816e-05 0.0
0.0 7.076570275600296e-05 0.0
0.0 0.00017465633192814554 0.0
0.0 0.00032436780030586427 0.0
0.0 0.0005115353137057144 0.0
0.0 0.0007209084065239775 0.0
0.0 0.0009343333849189271 0.0
0.0 0.001134957301609049 0.0
0.0 0.0013103272997477566 0.0
0.0 0.0014537488505396185 0.0
0.0 0.0015639947952504575 0.0
0.0 0.001643931135129517 0.0
0.0 0.001698754359341048 0.0
0.0 0.0017343967635336298 0.0
0.0 0.0017563999255199385 0.0
0.0 0.0017693144383897196 0.0
0.0 0.0017765280541090767 0.0
0.0 0.001780364951549466 0.0
0.0 0.0017823089810233427 0.0
0.0 0.0017832472667660237 0.0
0.0 0.001783678543243371 0.0
0.0 0.001783867218856843 0.0
0.0 0.0017839457049492757 0.0
0.0 0.0017839767019575817 0.0
0.0 0.0017839883050382646 0.0
0.0 0.001783992411322562 0.0
0.0 0.0017839937774019375 0.0
0.0 0.0017839942053282014 0.0
0.0 0.0017839943317379094 0.0
0.0 0.0017839943646440655 0.0
0.0 0.0017839943744442043 0.0
0.0 0.0017839943788102444 0.0
0.0 0.0017839943792553757 0.0
0.0 0.0017839943812462966 0.0
0.0 0.0017839943837143176 0.0
0.0 0.0017839943839790505 0.0
0.0 0.0017839943859954202 0.0
0.0 0.0017839943881952738 0.0
0.0 0.0017839943885608243 0.0
0.0 0.0017839943906120474 0.0
0.0 0.001783994392552082 0.0
0.0 0.001783994393015651 0.0
0.0 0.001783994395084145 0.0
0.0 0.0017839943967832236 0.0
0.0 0.0017839943973355923 0.0
0.0 0.0017839943994247742 0.0
0.0 0.0017839944008679403 0.0
0.0 0.0017839944015447626 0.0
0.0 0.0017839944036136825 0.0
0.0 0.0017839944048162514 0.0
0.0 0.0017839944056458445 0.0
0.0 0.001783994407638375 0.0
0.0 0.001783994408643359 0.0
0.0 0.001783994409628731 0.0
0.0 0.0017839944114995654 0.0
0.0 0.0017839944123571377 0.0
0.0 0.001783994413481874 0.0
0.0 0.0017839944152077002 0.0
0.0 0.0017839944159498003 0.0
0.0 0.0017839944172125563 0.0
0.0 0.0017839944187537193 0.0
0.0 0.0017839944194298902 0.0
0.0 0.0017839944208191125 0.0
0.0 0.0017839944221256458 0.0
0.0 0.0017839944228236345 0.0
0.0 0.0017839944242699695 0.0
0.0 0.001783994425346754 0.0
0.0 0.001783994426126696 0.0
0.0 0.0017839944275503579 0.0
0.0 0.0017839944284393633 0.0
0.0 0.0017839944293237754 0.0
0.0 0.0017839944306596294 0.0
0.0 0.0017839944314182602 0.0
0.0 0.0017839944323960342 0.0
0.0 0.0017839944336114108 0.0
0.0 0.0017839944342767978 0.0
0.0 0.0017839944353493567 0.0
0.0 0.0017839944363933337 0.0
0.0 0.0017839944370341928 0.0
0.0 0.0017839944381661905 0.0
0.0 0.0017839944390089784 0.0
0.0 0.0017839944397070604 0.0
0.0 0.001783994440816422 0.0
0.0 0.001783994441484959 0.0
0.0 0.0017839944422897195 0.0
0.0 0.001783994443278292 0.0
0.0 0.0017839944438608946 0.0
0.0 0.0017839944447451321 0.0
0.0 0.0017839944455671376 0.0
0.0 0.001783994446149736 0.0
0.0 0.0017839944470410117 0.0
0.0 0.0017839944477161568 0.0
0.0 0.0017839944483335041 0.0
0.0 0.0017839944491755766 0.0
0.0 0.0017839944497394743 0.0
0.0 0.0017839944503990355 0.0
0.0 0.0017839944511517738 0.0
0.0 0.0017839944516439637 0.0
0.0 0.0017839944523372437 0.0
0.0 0.0017839944529725068 0.0
0.0 0.001783994453434355 0.0
0.0 0.0017839944541428341 0.0
0.0 0.001783994454633204 0.0
0.0 0.0017839944551309502 0.0
0.0 0.001783994455784404 0.0
0.0 0.0017839944561625206 0.0
0.0 0.0017839944567230278 0.0
0.0 0.001783994457248046 0.0
0.0 0.001783994457592055 0.0
0.0 0.0017839944581797805 0.0
0.0 0.0017839944585436689 0.0
0.0 0.0017839944589428493 0.0
0.0 0.0017839944594549917 0.0
0.0 0.0017839944597229144 0.0
0.0 0.0017839944601812693 0.0
0.0 0.0017839944605494644 0.0
0.0 0.0017839944608158014 0.0
0.0 0.0017839944612640917 0.0
0.0 0.0017839944614954338 0.0
0.0 0.0017839944618198524 0.0
0.0 0.0017839944621608715 0.0
0.0 0.0017839944623432504 0.0
0.0 0.0017839944626873144 0.0
0.0 0.0017839944628959487 0.0
0.0 0.0017839944631003399 0.0
0.0 0.0017839944633862078 0.0
0.0 0.001783994463507174 0.0
0.0 0.0017839944637436911 0.0
0.0 0.001783994463912127 0.0
0.0 0.0017839944640250102 0.0
0.0 0.0017839944642304279 0.0
0.0 0.0017839944643016235 0.0
0.0 0.001783994464434391 0.0
0.0 0.0017839944645502575 0.0
0.0 0.0017839944645823922 0.0
0.0 0.0017839944647059628 0.0
0.0 0.0017839944647181343 0.0
0.0 0.0017839944647621362 0.0
0.0 0.0017839944648118378 0.0
0.0 0.0017839944648118402 0.0
0.0 0.001783994464762141 0.0
0.0 0.001783994464718147 0.0
0.0 0.001783994464705984 0.0
0.0 0.0017839944645824015 0.0
0.0 0.001783994464550258 0.0
0.0 0.0017839944644343817 0.0
0.0 0.0017839944643015999 0.0
0.0 0.001783994464230438 0.0
0.0 0.0017839944640250223 0.0
0.0 0.0017839944639121256 0.0
0.0 0.0017839944637436898 0.0
0.0 0.0017839944635071729 0.0
0.0 0.0017839944633862067 0.0
0.0 0.00178399446310033 0.0
0.0 0.0017839944628959563 0.0
0.0 0.0017839944626873024 0.0
0.0 0.001783994462343241 0.0
0.0 0.0017839944621608577 0.0
0.0 0.00178399446181983 0.0
0.0 0.0017839944614954238 0.0
0.0 0.001783994461264077 0.0
0.0 0.001783994460815786 0.0
0.0 0.0017839944605494806 0.0
0.0 0.001783994460181279 0.0
0.0 0.0017839944597229172 0.0
0.0 0.0017839944594550013 0.0
0.0 0.0017839944589428472 0.0
0.0 0.0017839944585436546 0.0
0.0 0.0017839944581797852 0.0
0.0 0.0017839944575920549 0.0
0.0 0.0017839944572480252 0.0
0.0 0.001783994456723038 0.0
0.0 0.001783994456162532 0.0
0.0 0.001783994455784422 0.0
0.0 0.0017839944551309489 0.0
0.0 0.0017839944546332027 0.0
0.0 0.0017839944541428326 0.0
0.0 0.0017839944534343618 0.0
0.0 0.0017839944529725032 0.0
0.0 0.0017839944523372559 0.0
0.0 0.0017839944516439604 0.0
0.0 0.0017839944511517747 0.0
0.0 0.0017839944503990428 0.0
0.0 0.001783994449739477 0.0
0.0 0.0017839944491755606 0.0
0.0 0.0017839944483335163 0.0
0.0 0.0017839944477161564 0.0
0.0 0.0017839944470410157 0.0
0.0 0.0017839944461497293 0.0
0.0 0.0017839944455671408 0.0
0.0 0.0017839944447451141 0.0
0.0 0.001783994443860882 0.0
0.0 0.0017839944432782885 0.0
0.0 0.0017839944422897132 0.0
0.0 0.001783994441484967 0.0
0.0 0.001783994440816419 0.0
0.0 0.0017839944397070673 0.0
0.0 0.001783994439008971 0.0
0.0 0.0017839944381661968 0.0
0.0 0.0017839944370342015 0.0