# vtk DataFile Version 2.0
data_118
ASCII
DATASET UNSTRUCTURED_GRID
POINTS 804 float
0.0 0.0 0.0
0.1 0.0 0.0
0.1 20.0 0.0
0.0 20.0 0.0
0.0 0.0 -0.1
0.1 0.0 -0.1
0.1 20.0 -0.1
0.0 20.0 -0.1
0.1 0.09999999999992462 0.0
0.1 0.1999999999998517 0.0
0.1 0.2999999999997818 0.0
0.1 0.399999999999712 0.0
0.1 0.4999999999996377 0.0
0.1 0.5999999999995541 0.0
0.1 0.6999999999994495 0.0
0.1 0.7999999999993355 0.0
0.1 0.8999999999992101 0.0
0.1 0.999999999999102 0.0
0.1 1.099999999999006 0.0
0.1 1.199999999998936 0.0
0.1 1.299999999998867 0.0
0.1 1.399999999998797 0.0
0.1 1.499999999998727 0.0
0.1 1.599999999998657 0.0
0.1 1.699999999998587 0.0
0.1 1.799999999998517 0.0
0.1 1.899999999998447 0.0
0.1 1.999999999998378 0.0
0.1 2.099999999998308 0.0
0.1 2.199999999998238 0.0
0.1 2.299999999998168 0.0
0.1 2.399999999998067 0.0
0.1 2.499999999997942 0.0
0.1 2.599999999997706 0.0
0.1 2.699999999997444 0.0
0.1 2.799999999997153 0.0
0.1 2.899999999996861 0.0
0.1 2.999999999996569 0.0
0.1 3.099999999996277 0.0
0.1 3.199999999995984 0.0
0.1 3.299999999995693 0.0
0.1 3.399999999995401 0.0
0.1 3.499999999995108 0.0
0.1 3.599999999994816 0.0
0.1 3.699999999994525 0.0
0.1 3.799999999994232 0.0
0.1 3.89999999999394 0.0
0.1 3.999999999993648 0.0
0.1 4.099999999993356 0.0
0.1 4.199999999993064 0.0
0.1 4.299999999992772 0.0
0.1 4.399999999992479 0.0
0.1 4.499999999992188 0.0
0.1 4.599999999991895 0.0
0.1 4.699999999991603 0.0
0.1 4.799999999991311 0.0
0.1 4.899999999991019 0.0
0.1 4.999999999990727 0.0
0.1 5.099999999990436 0.0
0.1 5.199999999990144 0.0
0.1 5.299999999989851 0.0
0.1 5.399999999989559 0.0
0.1 5.499999999989267 0.0
0.1 5.599999999988975 0.0
0.1 5.699999999988683 0.0
0.1 5.799999999988391 0.0
0.1 5.899999999988099 0.0
0.1 5.999999999987806 0.0
0.1 6.099999999987515 0.0
0.1 6.199999999987222 0.0
0.1 6.299999999986929 0.0
0.1 6.399999999986638 0.0
0.1 6.499999999986345 0.0
0.1 6.599999999986054 0.0
0.1 6.699999999985762 0.0
0.1 6.79999999998547 0.0
0.1 6.899999999985177 0.0
0.1 6.999999999984885 0.0
0.1 7.099999999984593 0.0
0.1 7.199999999984302 0.0
0.1 7.299999999984009 0.0
0.1 7.399999999983717 0.0
0.1 7.499999999983426 0.0
0.1 7.599999999983132 0.0
0.1 7.699999999982841 0.0
0.1 7.799999999982549 0.0
0.1 7.899999999982256 0.0
0.1 7.999999999982034 0.0
0.1 8.099999999981964 0.0
0.1 8.199999999982062 0.0
0.1 8.299999999982214 0.0
0.1 8.399999999982366 0.0
0.1 8.499999999982517 0.0
0.1 8.59999999998267 0.0
0.1 8.699999999982822 0.0
0.1 8.799999999982973 0.0
0.1 8.899999999983125 0.0
0.1 8.999999999983277 0.0
0.1 9.09999999998343 0.0
0.1 9.19999999998358 0.0
0.1 9.299999999983733 0.0
0.1 9.399999999983885 0.0
0.1 9.499999999984038 0.0
0.1 9.599999999984188 0.0
0.1 9.69999999998434 0.0
0.1 9.799999999984493 0.0
0.1 9.899999999984646 0.0
0.1 9.999999999984798 0.0
0.1 10.09999999998495 0.0
0.1 10.1999999999851 0.0
0.1 10.29999999998525 0.0
0.1 10.39999999998541 0.0
0.1 10.49999999998556 0.0
0.1 10.59999999998571 0.0
0.1 10.69999999998586 0.0
0.1 10.79999999998601 0.0
0.1 10.89999999998616 0.0
0.1 10.99999999998632 0.0
0.1 11.09999999998647 0.0
0.1 11.19999999998662 0.0
0.1 11.29999999998677 0.0
0.1 11.39999999998693 0.0
0.1 11.49999999998708 0.0
0.1 11.59999999998723 0.0
0.1 11.69999999998738 0.0
0.1 11.79999999998754 0.0
0.1 11.89999999998769 0.0
0.1 11.99999999998784 0.0
0.1 12.09999999998799 0.0
0.1 12.19999999998814 0.0
0.1 12.2999999999883 0.0
0.1 12.39999999998845 0.0
0.1 12.4999999999886 0.0
0.1 12.59999999998875 0.0
0.1 12.6999999999889 0.0
0.1 12.79999999998905 0.0
0.1 12.89999999998921 0.0
0.1 12.99999999998936 0.0
0.1 13.09999999998951 0.0
0.1 13.19999999998966 0.0
0.1 13.29999999998982 0.0
0.1 13.39999999998997 0.0
0.1 13.49999999999012 0.0
0.1 13.59999999999027 0.0
0.1 13.69999999999042 0.0
0.1 13.79999999999057 0.0
0.1 13.89999999999073 0.0
0.1 13.99999999999088 0.0
0.1 14.09999999999103 0.0
0.1 14.19999999999118 0.0
0.1 14.29999999999134 0.0
0.1 14.39999999999149 0.0
0.1 14.49999999999164 0.0
0.1 14.59999999999179 0.0
0.1 14.69999999999194 0.0
0.1 14.7999999999921 0.0
0.1 14.89999999999225 0.0
0.1 14.9999999999924 0.0
0.1 15.09999999999255 0.0
0.1 15.1999999999927 0.0
0.1 15.29999999999285 0.0
0.1 15.39999999999301 0.0
0.1 15.49999999999316 0.0
0.1 15.59999999999331 0.0
0.1 15.69999999999346 0.0
0.1 15.79999999999362 0.0
0.1 15.89999999999377 0.0
0.1 15.99999999999392 0.0
0.1 16.09999999999407 0.0
0.1 16.19999999999422 0.0
0.1 16.29999999999437 0.0
0.1 16.39999999999453 0.0
0.1 16.49999999999468 0.0
0.1 16.59999999999483 0.0
0.1 16.69999999999498 0.0
0.1 16.79999999999514 0.0
0.1 16.89999999999528 0.0
0.1 16.99999999999544 0.0
0.1 17.09999999999559 0.0
0.1 17.19999999999574 0.0
0.1 17.29999999999589 0.0
0.1 17.39999999999605 0.0
0.1 17.4999999999962 0.0
0.1 17.59999999999635 0.0
0.1 17.6999999999965 0.0
0.1 17.79999999999665 0.0
0.1 17.89999999999681 0.0
0.1 17.99999999999696 0.0
0.1 18.09999999999711 0.0
0.1 18.19999999999726 0.0
0.1 18.29999999999742 0.0
0.1 18.39999999999757 0.0
0.1 18.49999999999772 0.0
0.1 18.59999999999787 0.0
0.1 18.69999999999802 0.0
0.1 18.79999999999818 0.0
0.1 18.89999999999833 0.0
0.1 18.99999999999848 0.0
0.1 19.09999999999863 0.0
0.1 19.19999999999878 0.0
0.1 19.29999999999894 0.0
0.1 19.39999999999909 0.0
0.1 19.49999999999924 0.0
0.1 19.59999999999939 0.0
0.1 19.69999999999955 0.0
0.1 19.7999999999997 0.0
0.1 19.89999999999985 0.0
0.0 19.9 0.0
0.0 19.8 0.0
0.0 19.7 0.0
0.0 19.6 0.0
0.0 19.5 0.0
0.0 19.4 0.0
0.0 19.3 0.0
0.0 19.2 0.0
0.0 19.1 0.0
0.0 19.0 0.0
0.0 18.9 0.0
0.0 18.8 0.0
0.0 18.7 0.0
0.0 18.6 0.0
0.0 18.5 0.0
0.0 18.4 0.0
0.0 18.3 0.0
0.0 18.2 0.0
0.0 18.1 0.0
0.0 18.0 0.0
0.0 17.9 0.0
0.0 17.8 0.0
0.0 17.7 0.0
0.0 17.6 0.0
0.0 17.5 0.0
0.0 17.4 0.0
0.0 17.3 0.0
0.0 17.2 0.0
0.0 17.09999999999999 0.0
0.0 17.0 0.0
0.0 16.9 0.0
0.0 16.8 0.0
0.0 16.7 0.0
0.0 16.59999999999999 0.0
0.0 16.49999999999999 0.0
0.0 16.4 0.0
0.0 16.29999999999999 0.0
0.0 16.2 0.0
0.0 16.09999999999999 0.0
0.0 15.99999999999999 0.0
0.0 15.89999999999999 0.0
0.0 15.79999999999999 0.0
0.0 15.69999999999999 0.0
0.0 15.59999999999999 0.0
0.0 15.49999999999999 0.0
0.0 15.39999999999999 0.0
0.0 15.29999999999999 0.0
0.0 15.19999999999999 0.0
0.0 15.09999999999999 0.0
0.0 14.99999999999999 0.0
0.0 14.89999999999999 0.0
0.0 14.79999999999999 0.0
0.0 14.69999999999999 0.0
0.0 14.59999999999999 0.0
0.0 14.49999999999999 0.0
0.0 14.39999999999999 0.0
0.0 14.29999999999999 0.0
0.0 14.19999999999999 0.0
0.0 14.09999999999999 0.0
0.0 13.99999999999999 0.0
0.0 13.89999999999999 0.0
0.0 13.79999999999999 0.0
0.0 13.69999999999999 0.0
0.0 13.59999999999999 0.0
0.0 13.49999999999999 0.0
0.0 13.39999999999999 0.0
0.0 13.29999999999999 0.0
0.0 13.19999999999999 0.0
0.0 13.09999999999999 0.0
0.0 12.99999999999999 0.0
0.0 12.89999999999999 0.0
0.0 12.79999999999999 0.0
0.0 12.69999999999999 0.0
0.0 12.59999999999999 0.0
0.0 12.49999999999999 0.0
0.0 12.39999999999999 0.0
0.0 12.29999999999999 0.0
0.0 12.19999999999999 0.0
0.0 12.09999999999999 0.0
0.0 11.99999999999999 0.0
0.0 11.89999999999999 0.0
0.0 11.79999999999999 0.0
0.0 11.69999999999999 0.0
0.0 11.59999999999999 0.0
0.0 11.49999999999999 0.0
0.0 11.39999999999999 0.0
0.0 11.29999999999999 0.0
0.0 11.19999999999999 0.0
0.0 11.09999999999999 0.0
0.0 10.99999999999999 0.0
0.0 10.89999999999999 0.0
0.0 10.79999999999999 0.0
0.0 10.69999999999999 0.0
0.0 10.59999999999999 0.0
0.0 10.49999999999999 0.0
0.0 10.39999999999999 0.0
0.0 10.29999999999999 0.0
0.0 10.19999999999999 0.0
0.0 10.09999999999999 0.0
0.0 9.999999999999993 0.0
0.0 9.899999999999993 0.0
0.0 9.799999999999994 0.0
0.0 9.699999999999992 0.0
0.0 9.599999999999993 0.0
0.0 9.499999999999993 0.0
0.0 9.399999999999993 0.0
0.0 9.299999999999995 0.0
0.0 9.199999999999996 0.0
0.0 9.099999999999994 0.0
0.0 8.999999999999995 0.0
0.0 8.899999999999995 0.0
0.0 8.799999999999994 0.0
0.0 8.699999999999994 0.0
0.0 8.599999999999994 0.0
0.0 8.499999999999995 0.0
0.0 8.399999999999995 0.0
0.0 8.299999999999994 0.0
0.0 8.199999999999994 0.0
0.0 8.099999999999994 0.0
0.0 7.999999999999993 0.0
0.0 7.899999999999995 0.0
0.0 7.799999999999995 0.0
0.0 7.699999999999996 0.0
0.0 7.599999999999996 0.0
0.0 7.499999999999996 0.0
0.0 7.399999999999995 0.0
0.0 7.299999999999995 0.0
0.0 7.199999999999996 0.0
0.0 7.099999999999994 0.0
0.0 6.999999999999995 0.0
0.0 6.899999999999995 0.0
0.0 6.799999999999995 0.0
0.0 6.699999999999996 0.0
0.0 6.599999999999994 0.0
0.0 6.499999999999995 0.0
0.0 6.399999999999997 0.0
0.0 6.299999999999997 0.0
0.0 6.199999999999996 0.0
0.0 6.099999999999996 0.0
0.0 5.999999999999996 0.0
0.0 5.899999999999997 0.0
0.0 5.799999999999997 0.0
0.0 5.699999999999996 0.0
0.0 5.599999999999996 0.0
0.0 5.499999999999996 0.0
0.0 5.399999999999995 0.0
0.0 5.299999999999995 0.0
0.0 5.199999999999996 0.0
0.0 5.099999999999996 0.0
0.0 4.999999999999998 0.0
0.0 4.899999999999999 0.0
0.0 4.799999999999997 0.0
0.0 4.699999999999998 0.0
0.0 4.599999999999998 0.0
0.0 4.499999999999996 0.0
0.0 4.399999999999997 0.0
0.0 4.299999999999997 0.0
0.0 4.199999999999998 0.0
0.0 4.099999999999998 0.0
0.0 3.999999999999996 0.0
0.0 3.899999999999999 0.0
0.0 3.799999999999997 0.0
0.0 3.699999999999996 0.0
0.0 3.599999999999998 0.0
0.0 3.5 0.0
0.0 3.399999999999999 0.0
0.0 3.299999999999997 0.0
0.0 3.199999999999999 0.0
0.0 3.099999999999998 0.0
0.0 3.0 0.0
0.0 2.899999999999999 0.0
0.0 2.799999999999997 0.0
0.0 2.699999999999999 0.0
0.0 2.599999999999998 0.0
0.0 2.499999999999996 0.0
0.0 2.399999999999999 0.0
0.0 2.299999999999997 0.0
0.0 2.199999999999999 0.0
0.0 2.100000000000001 0.0
0.0 2.0 0.0
0.0 1.899999999999999 0.0
0.0 1.800000000000001 0.0
0.0 1.699999999999999 0.0
0.0 1.599999999999998 0.0
0.0 1.5 0.0
0.0 1.399999999999999 0.0
0.0 1.299999999999997 0.0
0.0 1.199999999999999 0.0
0.0 1.099999999999998 0.0
0.0 1.0 0.0
0.0 0.8999999999999986 0.0
0.0 0.8000000000000007 0.0
0.0 0.6999999999999993 0.0
0.0 0.6000000000000014 0.0
0.0 0.5 0.0
0.0 0.3999999999999986 0.0
0.0 0.3000000000000007 0.0
0.0 0.1999999999999993 0.0
[...]
POINT_DATA 804
VECTORS displacement double
0.0 0.0 0.0
0.0 0.0 0.0
0.0 -0.001788058426756789 0.0
0.0 -0.0017880584267567926 0.0
0.0 0.0 0.0
0.0 0.0 0.0
0.0 -0.0017880584267567989 0.0
0.0 -0.0017880584267567926 0.0
0.0 -2.8917506188017535e-100 0.0
0.0 1.7011189286672166e-99 0.0
0.0 -9.607686737881474e-99 0.0
0.0 5.3629027792532283e-98 0.0
0.0 -2.9650065353323054e-97 0.0
0.0 1.6254572826325274e-96 0.0
0.0 -8.843406709391927e-96 0.0
0.0 4.778125638851269e-95 0.0
0.0 -2.5653402384394784e-94 0.0
0.0 1.3693772643073652e-93 0.0
0.0 -7.272307363930905e-93 0.0
0.0 3.8462184253395426e-92 0.0
0.0 -2.0301154152546122e-91 0.0
0.0 1.0747360609228754e-90 0.0
0.0 -5.776886151184581e-90 0.0
0.0 3.243706024993167e-89 0.0
0.0 -2.0117205197008922e-88 0.0
0.0 1.4844638643256623e-87 0.0
0.0 -1.3517352387738246e-86 0.0
0.0 1.4535945081696342e-85 0.0
0.0 -1.7073542598452073e-84 0.0
0.0 2.0681381927641692e-83 0.0
0.0 -2.5072518346622175e-82 0.0
0.0 3.000083269134738e-81 0.0
0.0 -3.519328197947005e-80 0.0
0.0 4.0315509219643134e-79 0.0
0.0 -4.496271990182803e-78 0.0
0.0 4.867340122537501e-77 0.0
0.0 -5.09651459624283e-76 0.0
0.0 5.139066316480847e-75 0.0
0.0 -4.960879004096797e-74 0.0
0.0 4.546083297316975e-73 0.0
0.0 -3.903805537346023e-72 0.0
0.0 3.0723138944816827e-71 0.0
0.0 -2.118865391420029e-70 0.0
0.0 1.1340361035577915e-69 0.0
0.0 -2.20301281588708e-69 0.0
0.0 -5.239776617673366e-68 0.0
0.0 1.022485398661555e-66 0.0
0.0 -1.236921018349043e-65 0.0
0.0 1.1767118844027267e-64 0.0
0.0 -8.989677106125998e-64 0.0
0.0 4.972439319510534e-63 0.0
0.0 -8.070117696274658e-63 0.0
0.0 -2.5159870057728114e-61 0.0
0.0 4.343267577836097e-60 0.0
0.0 -4.503099200155278e-59 0.0
0.0 3.308736965517793e-58 0.0
0.0 -1.4159044100072077e-57 0.0
0.0 -4.19993108124163e-57 0.0
0.0 1.602597076195903e-55 0.0
0.0 -1.8761947461561223e-54 0.0
0.0 1.365614856431436e-53 0.0
0.0 -4.669194192958878e-53 0.0
0.0 -3.5627000765749874e-52 0.0
0.0 7.769657221867313e-51 0.0
0.0 -7.198961570294936e-50 0.0
0.0 3.4479163762614885e-49 0.0
0.0 7.807738430082046e-49 0.0
0.0 -3.243531279172126e-47 0.0
0.0 3.193615925903968e-46 0.0
0.0 -1.423546662824187e-45 0.0
0.0 -5.4520075436137014e-45 0.0
0.0 1.5122794541364986e-43 0.0
0.0 -1.2235178643356621e-42 0.0
0.0 2.728074537170661e-42 0.0
0.0 5.075821515080102e-41 0.0
0.0 -6.592437542657363e-40 0.0
0.0 2.986271424566546e-39 0.0
0.0 1.3653085793582742e-38 0.0
0.0 -3.0174701251595637e-37 0.0
0.0 1.7280023367802936e-36 0.0
0.0 3.920696732850664e-36 0.0
0.0 -1.3286716496745251e-34 0.0
0.0 7.743288076257568e-34 0.0
0.0 2.0612278084969796e-33 0.0
0.0 -5.840260106049706e-32 0.0
0.0 2.693600054660257e-31 0.0
0.0 1.5561893588284545e-30 0.0
0.0 -2.401206944184697e-29 0.0
0.0 5.028990826032019e-29 0.0
0.0 1.0163396434559425e-27 0.0
0.0 -7.629862644038743e-27 0.0
0.0 -1.7904032835256803e-26 0.0
0.0 4.639775860612509e-25 0.0
0.0 -8.747496445321065e-25 0.0
0.0 -1.9877603873094552e-23 0.0
0.0 1.033755568021802e-22 0.0
0.0 6.699907387714007e-22 0.0
0.0 -6.364951379965193e-21 0.0
0.0 -1.8743104505015036e-20 0.0
0.0 3.138111449917222e-19 0.0
0.0 4.928002146838428e-19 0.0
0.0 -1.3832486779165184e-17 0.0
0.0 -1.792021783441621e-17 0.0
0.0 5.645968698822275e-16 0.0
0.0 1.1037619224224744e-15 0.0
0.0 -2.08039710886398e-14 0.0
0.0 -7.529249743527275e-14 0.0
0.0 6.118987765695844e-13 0.0
0.0 4.262016233922565e-12 0.0
0.0 -8.21330448801177e-12 0.0
0.0 -1.7195238513248203e-10 0.0
0.0 -4.3357789398982186e-10 0.0
0.0 3.352122342358421e-09 0.0
0.0 3.007169080420424e-08 0.0
0.0 7.48183644357979e-08 0.0
0.0 -3.5040536633357857e-07 0.0
0.0 -4.300939805816463e-06 0.0
0.0 -2.3149113815921875e-05 0.0
0.0 -8.605891052012876e-05 0.0
0.0 -0.0002444777944206162 0.0
0.0 -0.0005515491839359881 0.0
0.0 -0.0010049969970471904 0.0
0.0 -0.0014918811241663309 0.0
0.0 -0.0018236023092799902 0.0
0.0 -0.0018908627349496167 0.0
0.0 -0.0017914599082084646 0.0
0.0 -0.0017317561573678233 0.0
0.0 -0.0017805385901039942 0.0
0.0 -0.001823067200361345 0.0
0.0 -0.0017899581947544041 0.0
0.0 -0.0017644047527676512 0.0
0.0 -0.0017934022759075571 0.0
0.0 -0.001803481082057922 0.0
0.0 -0.0017779330961182624 0.0
0.0 -0.0017819193487729548 0.0
0.0 -0.0017996387558619998 0.0
0.0 -0.0017859095979846128 0.0
0.0 -0.0017808539695416963 0.0
0.0 -0.001795590869871222 0.0
0.0 -0.0017882288517501097 0.0
0.0 -0.0017822255730651831 0.0
0.0 -0.0017936569856532314 0.0
0.0 -0.0017880112197351456 0.0
0.0 -0.0017838982132396802 0.0
0.0 -0.001792907878157723 0.0
0.0 -0.001786817218518056 0.0
0.0 -0.00178580798826227 0.0
0.0 -0.0017922293278632455 0.0
0.0 -0.0017855215452864629 0.0
0.0 -0.0017880724499020916 0.0
0.0 -0.0017907676530881092 0.0
0.0 -0.0017850671814922045 0.0
0.0 -0.0017901645474870287 0.0
0.0 -0.001788384317337092 0.0
0.0 -0.0017862839606806343 0.0
0.0 -0.001790808072153318 0.0
0.0 -0.001786253643005094 0.0
0.0 -0.0017887808467133175 0.0
0.0 -0.0017891664444749055 0.0
0.0 -0.0017863066467492317 0.0
0.0 -0.0017902945808383718 0.0
0.0 -0.0017867583137489002 0.0
0.0 -0.0017886398070337752 0.0
0.0 -0.001788895711689195 0.0
0.0 -0.0017867680599576463 0.0
0.0 -0.0017899694877694932 0.0
0.0 -0.0017866952596034184 0.0
0.0 -0.0017891535095497057 0.0
0.0 -0.0017880728306580173 0.0
0.0 -0.001787623933075877 0.0
0.0 -0.0017893819357920203 0.0
0.0 -0.0017867914856384871 0.0
0.0 -0.001789628966345092 0.0
0.0 -0.0017871013377956356 0.0
0.0 -0.0017888912863874614 0.0
0.0 -0.0017880847803372617 0.0
0.0 -0.001787852076442087 0.0
0.0 -0.0017890162788362191 0.0
0.0 -0.001787144846556438 0.0
0.0 -0.0017894365586315002 0.0
0.0 -0.0017870239716016088 0.0
0.0 -0.0017892854676671809 0.0
0.0 -0.001787393026552446 0.0
0.0 -0.0017887657204066424 0.0
0.0 -0.0017879942609201353 0.0
0.0 -0.0017881457995439006 0.0
0.0 -0.0017885816546968107 0.0
0.0 -0.0017876282511536193 0.0
0.0 -0.0017890060273735176 0.0
0.0 -0.0017873078553956158 0.0
0.0 -0.001789221865911053 0.0
0.0 -0.0017871895866083637 0.0
0.0 -0.0017892545523073315 0.0
0.0 -0.0017872277633229228 0.0
0.0 -0.0017891611541032168 0.0
0.0 -0.0017873611673816451 0.0
0.0 -0.0017890016463261566 0.0
0.0 -0.0017875347084638563 0.0
0.0 -0.0017888241062465305 0.0
0.0 -0.0017877082439240262 0.0
0.0 -0.001788660711121309 0.0
0.0 -0.0017878569908599228 0.0
0.0 -0.001788529779315681 0.0
0.0 -0.0017879679974712043 0.0
0.0 -0.001788440022010202 0.0
0.0 -0.0017880357357095077 0.0
0.0 -0.0017883947116655965 0.0
0.0 -0.001788394711665569 0.0
0.0 -0.0017880357357095101 0.0
0.0 -0.0017884400220101908 0.0
0.0 -0.0017879679974712333 0.0
0.0 -0.00178852977931569 0.0
0.0 -0.001787856990859924 0.0
0.0 -0.0017886607111213047 0.0
0.0 -0.0017877082439240256 0.0
0.0 -0.0017888241062465346 0.0
0.0 -0.0017875347084638407 0.0
0.0 -0.0017890016463261587 0.0
0.0 -0.0017873611673816599 0.0
0.0 -0.001789161154103198 0.0
0.0 -0.0017872277633229061 0.0
0.0 -0.0017892545523073098 0.0
0.0 -0.0017871895866083793 0.0
0.0 -0.0017892218659110726 0.0
0.0 -0.001787307855395627 0.0
0.0 -0.0017890060273735042 0.0
0.0 -0.0017876282511536366 0.0
0.0 -0.0017885816546967753 0.0
0.0 -0.0017881457995439006 0.0
0.0 -0.0017879942609200954 0.0
0.0 -0.001788765720406695 0.0
0.0 -0.0017873930265524154 0.0
0.0 -0.0017892854676671943 0.0
0.0 -0.0017870239716016017 0.0
0.0 -0.0017894365586315006 0.0
0.0 -0.0017871448465564671 0.0
0.0 -0.0017890162788361615 0.0
0.0 -0.001787852076442173 0.0
0.0 -0.001788084780337194 0.0
0.0 -0.0017888912863875419 0.0
0.0 -0.0017871013377955978 0.0
0.0 -0.0017896289663450928 0.0
0.0 -0.0017867914856385095 0.0
0.0 -0.0017893819357919457 0.0
0.0 -0.0017876239330759582 0.0
0.0 -0.0017880728306578918 0.0
0.0 -0.0017891535095498352 0.0
0.0 -0.0017866952596033495 0.0
0.0 -0.0017899694877694875 0.0
0.0 -0.001786768059957735 0.0
0.0 -0.0017888957116890221 0.0
0.0 -0.0017886398070339714 0.0
0.0 -0.0017867583137487779 0.0
0.0 -0.0017902945808384012 0.0
0.0 -0.0017863066467493417 0.0
0.0 -0.001789166444474677 0.0
0.0 -0.0017887808467136025 0.0
0.0 -0.0017862536430049124 0.0
0.0 -0.001790808072153308 0.0
0.0 -0.0017862839606808678 0.0
0.0 -0.0017883843173367028 0.0
0.0 -0.0017901645474873511 0.0
0.0 -0.0017850671814921679 0.0
0.0 -0.0017907676530877976 0.0
0.0 -0.0017880724499026279 0.0
0.0 -0.0017855215452860771 0.0
0.0 -0.0017922293278631923 0.0
0.0 -0.001785807988262846 0.0
0.0 -0.0017868172185173488 0.0
0.0 -0.0017929078781579917 0.0
0.0 -0.0017838982132402327 0.0
0.0 -0.0017880112197341737 0.0
0.0 -0.0017936569856537555 0.0
0.0 -0.0017822255730657846 0.0
0.0 -0.0017882288517487549 0.0
0.0 -0.0017955908698718695 0.0
0.0 -0.0017808539695427705 0.0
0.0 -0.00178590959798276 0.0
0.0 -0.0017996387558622466 0.0
0.0 -0.0017819193487751774 0.0
0.0 -0.0017779330961163048 0.0
0.0 -0.0018034810820562058 0.0
0.0 -0.0017934022759111855 0.0
0.0 -0.001764404752768374 0.0
0.0 -0.0017899581947489532 0.0
0.0 -0.0018230672003615319 0.0
0.0 -0.001780538590112214 0.0
0.0 -0.001731756157368065 0.0
0.0 -0.0017914599081950246 0.0
0.0 -0.0018908627349435983 0.0
0.0 -0.001823602309305631 0.0
0.0 -0.0014918811242229724 0.0
0.0 -0.001004996997112262 0.0
0.0 -0.0005515491839874719 0.0
0.0 -0.00024447779445094817 0.0
0.0 -8.605891053378821e-05 0.0
0.0 -2.3149113820587187e-05 0.0
0.0 -4.300939806967503e-06 0.0
0.0 -3.50405366504252e-07 0.0
0.0 7.481836443632523e-08 0.0
0.0 3.0071690811307096e-08 0.0
0.0 3.352122343870322e-09 0.0
0.0 -4.335778939698791e-10 0.0
0.0 -1.7195238518225732e-10 0.0
0.0 -8.213304495386246e-12 0.0
0.0 4.262016234688143e-12 0.0
0.0 6.11898776869857e-13 0.0
0.0 -7.529249743531333e-14 0.0
0.0 -2.0803971097327638e-14 0.0
0.0 1.1037619220332086e-15 0.0
0.0 5.6459687010648115e-16 0.0
0.0 -1.7920217819994217e-17 0.0
0.0 -1.3832486784846294e-17 0.0
0.0 4.928002143469106e-19 0.0
0.0 3.1381114513601273e-19 0.0
0.0 -1.874310450048366e-20 0.0
0.0 -6.364951383497652e-21 0.0
0.0 6.69990738816411e-22 0.0
0.0 1.0337555687929819e-22 0.0
0.0 -1.987760387854856e-23 0.0
0.0 -8.747496458448725e-25 0.0
0.0 4.639775862714218e-25 0.0
0.0 -1.790403282432992e-26 0.0
0.0 -7.629862649276185e-27 0.0
0.0 1.016339643709016e-27 0.0
0.0 5.02899083397691e-29 0.0
0.0 -2.4012069454848852e-29 0.0
0.0 1.5561893587362872e-30 0.0
0.0 2.6936000571393603e-31 0.0
0.0 -5.840260108773799e-32 0.0
0.0 2.0612278074519602e-33 0.0
0.0 7.7432880821615e-34 0.0
0.0 -1.3286716502362537e-34 0.0
0.0 3.92069673025196e-36 0.0
0.0 1.728002338041816e-36 0.0
0.0 -3.017470126427414e-37 0.0
0.0 1.3653085790519918e-38 0.0
0.0 2.986271427066428e-39 0.0
0.0 -6.592437545842485e-40 0.0
0.0 5.075821515917796e-41 0.0
0.0 2.7280745408180115e-42 0.0
0.0 -1.2235178650197022e-42 0.0
0.0 1.5122794546320669e-43 0.0
0.0 -5.452007540615898e-45 0.0
0.0 -1.4235466641790657e-45 0.0
0.0 3.1936159279358448e-46 0.0
0.0 -3.243531281007983e-47 0.0
0.0 7.807738438870643e-49 0.0
0.0 3.447916376183954e-49 0.0
0.0 -7.198961569330286e-50 0.0
0.0 7.769657216596853e-51 0.0
0.0 -3.562700061904573e-52 0.0
0.0 -4.669194224126711e-53 0.0
0.0 1.365614862279207e-53 0.0
0.0 -1.8761947566244032e-54 0.0
0.0 1.6025970948471338e-55 0.0
0.0 -4.199931417372644e-57 0.0
0.0 -1.4159043487584686e-57 0.0
0.0 3.308736853378577e-58 0.0
0.0 -4.503098994943836e-59 0.0
0.0 4.3432672033918484e-60 0.0
0.0 -2.515986324665272e-61 0.0
0.0 -8.070130055922702e-63 0.0
0.0 4.97244155891701e-63 0.0
0.0 -8.989681160074772e-64 0.0
0.0 1.1767126179441853e-64 0.0
0.0 -1.2369223454663204e-65 0.0
0.0 1.0224878001698741e-66 0.0
0.0 -5.239820104491537e-68 0.0
0.0 -2.2029339639791057e-69 0.0
0.0 1.1340217750723399e-69 0.0
0.0 -2.1188392742888002e-70 0.0
0.0 3.072266096117213e-71 0.0
0.0 -3.9037176200113133e-72 0.0
0.0 4.5459206411698117e-73 0.0
0.0 -4.960576120230733e-74 0.0
0.0 5.138498439448241e-75 0.0
0.0 -5.095442485524291e-76 0.0
0.0 4.865302441051094e-77 0.0
0.0 -4.492375005561472e-78 0.0
0.0 4.0240571117406156e-79 0.0
0.0 -3.5048513786876995e-80 0.0
0.0 2.972015163437022e-81 0.0
0.0 -2.452691040164031e-82 0.0
0.0 1.961909640848939e-83 0.0
0.0 -1.5003956453141969e-84 0.0
0.0 1.0504789689511405e-85 0.0
0.0 -5.673311984586597e-87 0.0
0.0 -3.9287212035730424e-89 0.0
0.0 9.41452937717923e-89 0.0
0.0 -2.4636449861530947e-89 0.0
0.0 5.216941589733379e-90 0.0
0.0 -1.0351177418232367e-90 0.0
0.0 2.0024519833340154e-91 0.0
0.0 -3.8271095131687825e-92 0.0
0.0 7.259170741791899e-93 0.0
0.0 -1.3684645300345055e-93 0.0
0.0 2.56467483069805e-94 0.0
0.0 -4.777577439278139e-95 0.0
0.0 8.842848231734707e-96 0.0
0.0 -1.6253853921402327e-96 0.0
0.0 2.964897904518962e-97 0.0
0.0 -5.362726037591717e-98 0.0
0.0 9.607392205563776e-99 0.0
0.0 -1.7010697302320701e-99 0.0
0.0 2.8916708835505284e-100 0.0
0.0 2.8922072878079384e-100 0.0
0.0 -1.7014054681745897e-99 0.0
0.0 9.609420476474647e-99 0.0
0.0 -5.363936476210524e-98 0.0
0.0 2.965611438790525e-97 0.0
0.0 -1.6258007945960612e-96 0.0
0.0 8.845237137995843e-96 0.0
0.0 -4.778935264447713e-95 0.0
0.0 2.565438295608758e-94 0.0
0.0 -1.3688897324773672e-93 0.0
0.0 7.261520645488868e-93 0.0
0.0 -3.828401402401304e-92 0.0
0.0 2.0031608007143366e-91 0.0
0.0 -1.0355074465671731e-90 0.0
0.0 5.21909852713414e-90 0.0
0.0 -2.464852379455752e-89 0.0
0.0 9.421390099320649e-89 0.0
0.0 -3.968359445630183e-89 0.0
0.0 -5.670986348158479e-87 0.0
0.0 1.0503410045763536e-85 0.0
0.0 -1.500313465740893e-84 0.0
0.0 1.9618609210138744e-83 0.0
0.0 -2.452662581644084e-82 0.0
0.0 2.9719989711674505e-81 0.0
0.0 -3.504842529589521e-80 0.0
0.0 4.024052558229882e-79 0.0
0.0 -4.492372874305811e-78 0.0
0.0 4.8653016030691124e-77 0.0
0.0 -5.095442282677763e-76 0.0
0.0 5.138498506634759e-75 0.0
0.0 -4.960576269322075e-74 0.0
0.0 4.54592078619839e-73 0.0
0.0 -3.9037177302396587e-72 0.0
0.0 3.072266167801716e-71 0.0
0.0 -2.1188393146587857e-70 0.0
0.0 1.1340217939908777e-69 0.0
0.0 -2.2029340259518186e-69 0.0
0.0 -5.23982010615056e-68 0.0
0.0 1.0224878027039877e-66 0.0
0.0 -1.2369223482289089e-65 0.0
0.0 1.1767126200426828e-64 0.0
0.0 -8.98968117269873e-64 0.0
0.0 4.972441564833155e-63 0.0
0.0 -8.070130073992286e-63 0.0
0.0 -2.515986324714951e-61 0.0
0.0 4.343267203879885e-60 0.0
0.0 -4.503098995274661e-59 0.0
0.0 3.3087368535205425e-58 0.0
0.0 -1.4159043489194545e-57 0.0
0.0 -4.199931413732213e-57 0.0
0.0 1.6025970942569145e-55 0.0
0.0 -1.876194755949187e-54 0.0
0.0 1.365614861732892e-53 0.0
0.0 -4.669194221618051e-53 0.0
0.0 -3.562700061100807e-52 0.0
0.0 7.769657213520588e-51 0.0
0.0 -7.198961565796895e-50 0.0
0.0 3.447916373839331e-49 0.0
0.0 7.807738443114436e-49 0.0
0.0 -3.243531279872509e-47 0.0
0.0 3.1936159262800953e-46 0.0
0.0 -1.4235466630258694e-45 0.0
0.0 -5.452007542533887e-45 0.0
0.0 1.5122794540788561e-43 0.0
0.0 -1.2235178643049817e-42 0.0
0.0 2.7280745370081933e-42 0.0
0.0 5.075821515165443e-41 0.0
0.0 -6.592437542701675e-40 0.0
0.0 2.98627142458924e-39 0.0
0.0 1.365308579346858e-38 0.0
0.0 -3.0174701251538937e-37 0.0
0.0 1.7280023367775664e-36 0.0
0.0 3.9206967328628156e-36 0.0
0.0 -1.3286716496750772e-34 0.0
0.0 7.743288076259796e-34 0.0
0.0 2.0612278084964254e-33 0.0
0.0 -5.84026010604964e-32 0.0
0.0 2.693600054660442e-31 0.0
0.0 1.5561893588281839e-30 0.0
0.0 -2.4012069441844575e-29 0.0
0.0 5.0289908260300667e-29 0.0
0.0 1.0163396434560532e-27 0.0
0.0 -7.629862644039356e-27 0.0
0.0 -1.7904032835253546e-26 0.0
0.0 4.639775860612374e-25 0.0
0.0 -8.747496445320299e-25 0.0
0.0 -1.9877603873095073e-23 0.0
0.0 1.0337555680218547e-22 0.0
0.0 6.699907387713784e-22 0.0
0.0 -6.364951379965037e-21 0.0
0.0 -1.874310450501536e-20 0.0
0.0 3.1381114499171874e-19 0.0
0.0 4.928002146838504e-19 0.0
0.0 -1.3832486779164865e-17 0.0
0.0 -1.7920217834417743e-17 0.0
0.0 5.645968698822352e-16 0.0
0.0 1.1037619224223562e-15 0.0
0.0 -2.080397108863945e-14 0.0
0.0 -7.529249743527695e-14 0.0
0.0 6.118987765696025e-13 0.0
0.0 4.2620162339224595e-12 0.0
0.0 -8.213304488011086e-12 0.0
0.0 -1.719523851324889e-10 0.0
0.0 -4.3357789398978603e-10 0.0
0.0 3.3521223423584502e-09 0.0
0.0 3.007169080420377e-08 0.0
0.0 7.48183644358043e-08 0.0
0.0 -3.5040536633363013e-07 0.0
0.0 -4.3009398058163975e-06 0.0
0.0 -2.3149113815921865e-05 0.0
0.0 -8.60589105201291e-05 0.0
0.0 -0.0002444777944206116 0.0
0.0 -0.0005515491839359926 0.0
0.0 -0.001004996997047194 0.0
0.0 -0.001491881124166326 0.0
0.0 -0.0018236023092799934 0.0
0.0 -0.0018908627349496165 0.0
0.0 -0.0017914599082084614 0.0
0.0 -0.0017317561573678185 0.0
0.0 -0.0017805385901040033 0.0
0.0 -0.0018230672003613443 0.0
0.0 -0.0017899581947544065 0.0
0.0 -0.0017644047527676516 0.0
0.0 -0.0017934022759075396 0.0
0.0 -0.0018034810820579223 0.0
0.0 -0.0017779330961182596 0.0
0.0 -0.0017819193487729613 0.0
0.0 -0.0017996387558619972 0.0
0.0 -0.001785909597984608 0.0
0.0 -0.00178085396954171 0.0
0.0 -0.001795590869871214 0.0
0.0 -0.0017882288517501131 0.0
0.0 -0.0017822255730651783 0.0
0.0 -0.0017936569856532316 0.0
0.0 -0.001788011219735156 0.0
0.0 -0.0017838982132396912 0.0
0.0 -0.0017929078781577274 0.0
0.0 -0.0017868172185180502 0.0
0.0 -0.0017858079882622808 0.0
0.0 -0.00179222932786325 0.0
0.0 -0.0017855215452864655 0.0
0.0 -0.0017880724499021092 0.0
0.0 -0.0017907676530881098 0.0
0.0 -0.0017850671814922082 0.0
0.0 -0.0017901645474870417 0.0
0.0 -0.0017883843173370775 0.0
0.0 -0.001786283960680633 0.0
0.0 -0.0017908080721533192 0.0
0.0 -0.001786253643005092 0.0
0.0 -0.0017887808467133394 0.0
0.0 -0.0017891664444749118 0.0
0.0 -0.0017863066467492254 0.0
0.0 -0.0017902945808383644 0.0
0.0 -0.0017867583137489206 0.0
0.0 -0.001788639807033778 0.0
0.0 -0.0017888957116891896 0.0
0.0 -0.0017867680599576573 0.0
0.0 -0.0017899694877695005 0.0
0.0 -0.0017866952596034124 0.0
0.0 -0.0017891535095497116 0.0
0.0 -0.001788072830658011 0.0
0.0 -0.0017876239330758667 0.0
0.0 -0.0017893819357920253 0.0
0.0 -0.0017867914856384906 0.0
0.0 -0.001789628966345072 0.0
0.0 -0.0017871013377956462 0.0
0.0 -0.0017888912863874746 0.0
0.0 -0.0017880847803372606 0.0
0.0 -0.0017878520764421132 0.0
0.0 -0.0017890162788362213 0.0
0.0 -0.0017871448465564392 0.0
0.0 -0.0017894365586314928 0.0
0.0 -0.0017870239716016021 0.0
0.0 -0.0017892854676671746 0.0
0.0 -0.001787393026552444 0.0
0.0 -0.0017887657204066422 0.0
0.0 -0.0017879942609201314 0.0
0.0 -0.0017881457995438687 0.0
0.0 -0.001788581654696806 0.0
0.0 -0.0017876282511536227 0.0
0.0 -0.0017890060273735256 0.0
0.0 -0.0017873078553956258 0.0
0.0 -0.0017892218659110693 0.0
0.0 -0.001787189586608367 0.0
0.0 -0.0017892545523073115 0.0
0.0 -0.0017872277633229074 0.0
0.0 -0.0017891611541031936 0.0
0.0 -0.001787361167381662 0.0
0.0 -0.0017890016463261642 0.0
0.0 -0.0017875347084638491 0.0
0.0 -0.0017888241062465444 0.0
0.0 -0.0017877082439240182 0.0
0.0 -0.0017886607111212978 0.0
0.0 -0.001787856990859916 0.0
0.0 -0.0017885297793156897 0.0
0.0 -0.001787967997471232 0.0
0.0 -0.001788440022010204 0.0
0.0 -0.0017880357357095004 0.0
0.0 -0.001788394711665586 0.0
0.0 -0.0017883947116655837 0.0
0.0 -0.0017880357357095116 0.0
0.0 -0.0017884400220101971 0.0
0.0 -0.001787967997471218 0.0
0.0 -0.0017885297793156772 0.0
0.0 -0.0017878569908599314 0.0
0.0 -0.0017886607111212993 0.0
0.0 -0.0017877082439240204 0.0
0.0 -0.0017888241062465164 0.0
0.0 -0.0017875347084638385 0.0
0.0 -0.0017890016463261483 0.0
0.0 -0.0017873611673816477 0.0
0.0 -0.00178916115410321 0.0
0.0 -0.0017872277633229035 0.0
0.0 -0.0017892545523073115 0.0
0.0 -0.0017871895866083704 0.0
0.0 -0.001789221865911057 0.0
0.0 -0.0017873078553956273 0.0
0.0 -0.0017890060273734977 0.0
0.0 -0.0017876282511536305 0.0
0.0 -0.0017885816546967797 0.0
0.0 -0.0017881457995439062 0.0
0.0 -0.001787994260920095 0.0
0.0 -0.0017887657204066715 0.0
0.0 -0.001787393026552422 0.0
0.0 -0.001789285467667195 0.0
0.0 -0.0017870239716015974 0.0
0.0 -0.0017894365586314856 0.0
0.0 -0.001787144846556465 0.0
0.0 -0.0017890162788361623 0.0
0.0 -0.001787852076442166 0.0
0.0 -0.0017880847803371884 0.0
0.0 -0.0017888912863875215 0.0
0.0 -0.0017871013377955959 0.0
0.0 -0.0017896289663451024 0.0
0.0 -0.0017867914856385136 0.0
0.0 -0.001789381935791953 0.0
0.0 -0.001787623933075967 0.0
0.0 -0.0017880728306578992 0.0
0.0 -0.0017891535095498133 0.0
0.0 -0.0017866952596033495 0.0
0.0 -0.0017899694877694893 0.0
0.0 -0.0017867680599577495 0.0
0.0 -0.0017888957116890302 0.0
0.0 -0.001788639807033964 0.0