# vtk DataFile Version 2.0
data_15
ASCII
DATASET UNSTRUCTURED_GRID
POINTS 804 float
0.0 0.0 0.0
0.1 0.0 0.0
0.1 20.0 0.0
0.0 20.0 0.0
0.0 0.0 -0.1
0.1 0.0 -0.1
0.1 20.0 -0.1
0.0 20.0 -0.1
0.1 0.09999999999992462 0.0
0.1 0.1999999999998517 0.0
0.1 0.2999999999997818 0.0
0.1 0.399999999999712 0.0
0.1 0.4999999999996377 0.0
0.1 0.5999999999995541 0.0
0.1 0.6999999999994495 0.0
0.1 0.7999999999993355 0.0
0.1 0.8999999999992101 0.0
0.1 0.999999999999102 0.0
0.1 1.099999999999006 0.0
0.1 1.199999999998936 0.0
0.1 1.299999999998867 0.0
0.1 1.399999999998797 0.0
0.1 1.499999999998727 0.0
0.1 1.599999999998657 0.0
0.1 1.699999999998587 0.0
0.1 1.799999999998517 0.0
0.1 1.899999999998447 0.0
0.1 1.999999999998378 0.0
0.1 2.099999999998308 0.0
0.1 2.199999999998238 0.0
0.1 2.299999999998168 0.0
0.1 2.399999999998067 0.0
0.1 2.499999999997942 0.0
0.1 2.599999999997706 0.0
0.1 2.699999999997444 0.0
0.1 2.799999999997153 0.0
0.1 2.899999999996861 0.0
0.1 2.999999999996569 0.0
0.1 3.099999999996277 0.0
0.1 3.199999999995984 0.0
0.1 3.299999999995693 0.0
0.1 3.399999999995401 0.0
0.1 3.499999999995108 0.0
0.1 3.599999999994816 0.0
0.1 3.699999999994525 0.0
0.1 3.799999999994232 0.0
0.1 3.89999999999394 0.0
0.1 3.999999999993648 0.0
0.1 4.099999999993356 0.0
0.1 4.199999999993064 0.0
0.1 4.299999999992772 0.0
0.1 4.399999999992479 0.0
0.1 4.499999999992188 0.0
0.1 4.599999999991895 0.0
0.1 4.699999999991603 0.0
0.1 4.799999999991311 0.0
0.1 4.899999999991019 0.0
0.1 4.999999999990727 0.0
0.1 5.099999999990436 0.0
0.1 5.199999999990144 0.0
0.1 5.299999999989851 0.0
0.1 5.399999999989559 0.0
0.1 5.499999999989267 0.0
0.1 5.599999999988975 0.0
0.1 5.699999999988683 0.0
0.1 5.799999999988391 0.0
0.1 5.899999999988099 0.0
0.1 5.999999999987806 0.0
0.1 6.099999999987515 0.0
0.1 6.199999999987222 0.0
0.1 6.299999999986929 0.0
0.1 6.399999999986638 0.0
0.1 6.499999999986345 0.0
0.1 6.599999999986054 0.0
0.1 6.699999999985762 0.0
0.1 6.79999999998547 0.0
0.1 6.899999999985177 0.0
0.1 6.999999999984885 0.0
0.1 7.099999999984593 0.0
0.1 7.199999999984302 0.0
0.1 7.299999999984009 0.0
0.1 7.399999999983717 0.0
0.1 7.499999999983426 0.0
0.1 7.599999999983132 0.0
0.1 7.699999999982841 0.0
0.1 7.799999999982549 0.0
0.1 7.899999999982256 0.0
0.1 7.999999999982034 0.0
0.1 8.099999999981964 0.0
0.1 8.199999999982062 0.0
0.1 8.299999999982214 0.0
0.1 8.399999999982366 0.0
0.1 8.499999999982517 0.0
0.1 8.59999999998267 0.0
0.1 8.699999999982822 0.0
0.1 8.799999999982973 0.0
0.1 8.899999999983125 0.0
0.1 8.999999999983277 0.0
0.1 9.09999999998343 0.0
0.1 9.19999999998358 0.0
0.1 9.299999999983733 0.0
0.1 9.399999999983885 0.0
0.1 9.499999999984038 0.0
0.1 9.599999999984188 0.0
0.1 9.69999999998434 0.0
0.1 9.799999999984493 0.0
0.1 9.899999999984646 0.0
0.1 9.999999999984798 0.0
0.1 10.09999999998495 0.0
0.1 10.1999999999851 0.0
0.1 10.29999999998525 0.0
0.1 10.39999999998541 0.0
0.1 10.49999999998556 0.0
0.1 10.59999999998571 0.0
0.1 10.69999999998586 0.0
0.1 10.79999999998601 0.0
0.1 10.89999999998616 0.0
0.1 10.99999999998632 0.0
0.1 11.09999999998647 0.0
0.1 11.19999999998662 0.0
0.1 11.29999999998677 0.0
0.1 11.39999999998693 0.0
0.1 11.49999999998708 0.0
0.1 11.59999999998723 0.0
0.1 11.69999999998738 0.0
0.1 11.79999999998754 0.0
0.1 11.89999999998769 0.0
0.1 11.99999999998784 0.0
0.1 12.09999999998799 0.0
0.1 12.19999999998814 0.0
0.1 12.2999999999883 0.0
0.1 12.39999999998845 0.0
0.1 12.4999999999886 0.0
0.1 12.59999999998875 0.0
0.1 12.6999999999889 0.0
0.1 12.79999999998905 0.0
0.1 12.89999999998921 0.0
0.1 12.99999999998936 0.0
0.1 13.09999999998951 0.0
0.1 13.19999999998966 0.0
0.1 13.29999999998982 0.0
0.1 13.39999999998997 0.0
0.1 13.49999999999012 0.0
0.1 13.59999999999027 0.0
0.1 13.69999999999042 0.0
0.1 13.79999999999057 0.0
0.1 13.89999999999073 0.0
0.1 13.99999999999088 0.0
0.1 14.09999999999103 0.0
0.1 14.19999999999118 0.0
0.1 14.29999999999134 0.0
0.1 14.39999999999149 0.0
0.1 14.49999999999164 0.0
0.1 14.59999999999179 0.0
0.1 14.69999999999194 0.0
0.1 14.7999999999921 0.0
0.1 14.89999999999225 0.0
0.1 14.9999999999924 0.0
0.1 15.09999999999255 0.0
0.1 15.1999999999927 0.0
0.1 15.29999999999285 0.0
0.1 15.39999999999301 0.0
0.1 15.49999999999316 0.0
0.1 15.59999999999331 0.0
0.1 15.69999999999346 0.0
0.1 15.79999999999362 0.0
0.1 15.89999999999377 0.0
0.1 15.99999999999392 0.0
0.1 16.09999999999407 0.0
0.1 16.19999999999422 0.0
0.1 16.29999999999437 0.0
0.1 16.39999999999453 0.0
0.1 16.49999999999468 0.0
0.1 16.59999999999483 0.0
0.1 16.69999999999498 0.0
0.1 16.79999999999514 0.0
0.1 16.89999999999528 0.0
0.1 16.99999999999544 0.0
0.1 17.09999999999559 0.0
0.1 17.19999999999574 0.0
0.1 17.29999999999589 0.0
0.1 17.39999999999605 0.0
0.1 17.4999999999962 0.0
0.1 17.59999999999635 0.0
0.1 17.6999999999965 0.0
0.1 17.79999999999665 0.0
0.1 17.89999999999681 0.0
0.1 17.99999999999696 0.0
0.1 18.09999999999711 0.0
0.1 18.19999999999726 0.0
0.1 18.29999999999742 0.0
0.1 18.39999999999757 0.0
0.1 18.49999999999772 0.0
0.1 18.59999999999787 0.0
0.1 18.69999999999802 0.0
0.1 18.79999999999818 0.0
0.1 18.89999999999833 0.0
0.1 18.99999999999848 0.0
0.1 19.09999999999863 0.0
0.1 19.19999999999878 0.0
0.1 19.29999999999894 0.0
0.1 19.39999999999909 0.0
0.1 19.49999999999924 0.0
0.1 19.59999999999939 0.0
0.1 19.69999999999955 0.0
0.1 19.7999999999997 0.0
0.1 19.89999999999985 0.0
0.0 19.9 0.0
0.0 19.8 0.0
0.0 19.7 0.0
0.0 19.6 0.0
0.0 19.5 0.0
0.0 19.4 0.0
0.0 19.3 0.0
0.0 19.2 0.0
0.0 19.1 0.0
0.0 19.0 0.0
0.0 18.9 0.0
0.0 18.8 0.0
0.0 18.7 0.0
0.0 18.6 0.0
0.0 18.5 0.0
0.0 18.4 0.0
0.0 18.3 0.0
0.0 18.2 0.0
0.0 18.1 0.0
0.0 18.0 0.0
0.0 17.9 0.0
0.0 17.8 0.0
0.0 17.7 0.0
0.0 17.6 0.0
0.0 17.5 0.0
0.0 17.4 0.0
0.0 17.3 0.0
0.0 17.2 0.0
0.0 17.09999999999999 0.0
0.0 17.0 0.0
0.0 16.9 0.0
0.0 16.8 0.0
0.0 16.7 0.0
0.0 16.59999999999999 0.0
0.0 16.49999999999999 0.0
0.0 16.4 0.0
0.0 16.29999999999999 0.0
0.0 16.2 0.0
0.0 16.09999999999999 0.0
0.0 15.99999999999999 0.0
0.0 15.89999999999999 0.0
0.0 15.79999999999999 0.0
0.0 15.69999999999999 0.0
0.0 15.59999999999999 0.0
0.0 15.49999999999999 0.0
0.0 15.39999999999999 0.0
0.0 15.29999999999999 0.0
0.0 15.19999999999999 0.0
0.0 15.09999999999999 0.0
0.0 14.99999999999999 0.0
0.0 14.89999999999999 0.0
0.0 14.79999999999999 0.0
0.0 14.69999999999999 0.0
0.0 14.59999999999999 0.0
0.0 14.49999999999999 0.0
0.0 14.39999999999999 0.0
0.0 14.29999999999999 0.0
0.0 14.19999999999999 0.0
0.0 14.09999999999999 0.0
0.0 13.99999999999999 0.0
0.0 13.89999999999999 0.0
0.0 13.79999999999999 0.0
0.0 13.69999999999999 0.0
0.0 13.59999999999999 0.0
0.0 13.49999999999999 0.0
0.0 13.39999999999999 0.0
0.0 13.29999999999999 0.0
0.0 13.19999999999999 0.0
0.0 13.09999999999999 0.0
0.0 12.99999999999999 0.0
0.0 12.89999999999999 0.0
0.0 12.79999999999999 0.0
0.0 12.69999999999999 0.0
0.0 12.59999999999999 0.0
0.0 12.49999999999999 0.0
0.0 12.39999999999999 0.0
0.0 12.29999999999999 0.0
0.0 12.19999999999999 0.0
0.0 12.09999999999999 0.0
0.0 11.99999999999999 0.0
0.0 11.89999999999999 0.0
0.0 11.79999999999999 0.0
0.0 11.69999999999999 0.0
0.0 11.59999999999999 0.0
0.0 11.49999999999999 0.0
0.0 11.39999999999999 0.0
0.0 11.29999999999999 0.0
0.0 11.19999999999999 0.0
0.0 11.09999999999999 0.0
0.0 10.99999999999999 0.0
0.0 10.89999999999999 0.0
0.0 10.79999999999999 0.0
0.0 10.69999999999999 0.0
0.0 10.59999999999999 0.0
0.0 10.49999999999999 0.0
0.0 10.39999999999999 0.0
0.0 10.29999999999999 0.0
0.0 10.19999999999999 0.0
0.0 10.09999999999999 0.0
0.0 9.999999999999993 0.0
0.0 9.899999999999993 0.0
0.0 9.799999999999994 0.0
0.0 9.699999999999992 0.0
0.0 9.599999999999993 0.0
0.0 9.499999999999993 0.0
0.0 9.399999999999993 0.0
0.0 9.299999999999995 0.0
0.0 9.199999999999996 0.0
0.0 9.099999999999994 0.0
0.0 8.999999999999995 0.0
0.0 8.899999999999995 0.0
0.0 8.799999999999994 0.0
0.0 8.699999999999994 0.0
0.0 8.599999999999994 0.0
0.0 8.499999999999995 0.0
0.0 8.399999999999995 0.0
0.0 8.299999999999994 0.0
0.0 8.199999999999994 0.0
0.0 8.099999999999994 0.0
0.0 7.999999999999993 0.0
0.0 7.899999999999995 0.0
0.0 7.799999999999995 0.0
0.0 7.699999999999996 0.0
0.0 7.599999999999996 0.0
0.0 7.499999999999996 0.0
0.0 7.399999999999995 0.0
0.0 7.299999999999995 0.0
0.0 7.199999999999996 0.0
0.0 7.099999999999994 0.0
0.0 6.999999999999995 0.0
0.0 6.899999999999995 0.0
0.0 6.799999999999995 0.0
0.0 6.699999999999996 0.0
0.0 6.599999999999994 0.0
0.0 6.499999999999995 0.0
0.0 6.399999999999997 0.0
0.0 6.299999999999997 0.0
0.0 6.199999999999996 0.0
0.0 6.099999999999996 0.0
0.0 5.999999999999996 0.0
0.0 5.899999999999997 0.0
0.0 5.799999999999997 0.0
0.0 5.699999999999996 0.0
0.0 5.599999999999996 0.0
0.0 5.499999999999996 0.0
0.0 5.399999999999995 0.0
0.0 5.299999999999995 0.0
0.0 5.199999999999996 0.0
0.0 5.099999999999996 0.0
0.0 4.999999999999998 0.0
0.0 4.899999999999999 0.0
0.0 4.799999999999997 0.0
0.0 4.699999999999998 0.0
0.0 4.599999999999998 0.0
0.0 4.499999999999996 0.0
0.0 4.399999999999997 0.0
0.0 4.299999999999997 0.0
0.0 4.199999999999998 0.0
0.0 4.099999999999998 0.0
0.0 3.999999999999996 0.0
0.0 3.899999999999999 0.0
0.0 3.799999999999997 0.0
0.0 3.699999999999996 0.0
0.0 3.599999999999998 0.0
0.0 3.5 0.0
0.0 3.399999999999999 0.0
0.0 3.299999999999997 0.0
0.0 3.199999999999999 0.0
0.0 3.099999999999998 0.0
0.0 3.0 0.0
0.0 2.899999999999999 0.0
0.0 2.799999999999997 0.0
0.0 2.699999999999999 0.0
0.0 2.599999999999998 0.0
0.0 2.499999999999996 0.0
0.0 2.399999999999999 0.0
0.0 2.299999999999997 0.0
0.0 2.199999999999999 0.0
0.0 2.100000000000001 0.0
0.0 2.0 0.0
0.0 1.899999999999999 0.0
0.0 1.800000000000001 0.0
0.0 1.699999999999999 0.0
0.0 1.599999999999998 0.0
0.0 1.5 0.0
0.0 1.399999999999999 0.0
0.0 1.299999999999997 0.0
0.0 1.199999999999999 0.0
0.0 1.099999999999998 0.0
0.0 1.0 0.0
0.0 0.8999999999999986 0.0
0.0 0.8000000000000007 0.0
0.0 0.6999999999999993 0.0
0.0 0.6000000000000014 0.0
0.0 0.5 0.0
0.0 0.3999999999999986 0.0
0.0 0.3000000000000007 0.0
0.0 0.1999999999999993 0.0
[...]
POINT_DATA 804
VECTORS displacement double
0.0 0.0 0.0
0.0 0.0 0.0
0.0 -0.001761541993642999 0.0
0.0 -0.0017615419936431477 0.0
0.0 0.0 0.0
0.0 0.0 0.0
0.0 -0.0017615419936429979 0.0
0.0 -0.0017615419936431547 0.0
0.0 -1.0718362892823884e-170 0.0
0.0 7.676833975685014e-170 0.0
0.0 -5.388904101828109e-169 0.0
0.0 3.779618307906068e-168 0.0
0.0 -2.6496598851103345e-167 0.0
0.0 1.856641779383371e-166 0.0
0.0 -1.3003480939811234e-165 0.0
0.0 9.10295174168981e-165 0.0
0.0 -6.3693262115594354e-164 0.0
0.0 4.4544167547126776e-163 0.0
0.0 -3.1136637202583197e-162 0.0
0.0 2.1753713522419247e-161 0.0
0.0 -1.5190539870313427e-160 0.0
0.0 1.0602012533337272e-159 0.0
0.0 -7.395641308262194e-159 0.0
0.0 5.1562365488401715e-158 0.0
0.0 -3.592992081199465e-157 0.0
0.0 2.502320913737642e-156 0.0
0.0 -1.7417662456254544e-155 0.0
0.0 1.2116956958929929e-154 0.0
0.0 -8.424627602571828e-154 0.0
0.0 5.854069022931897e-153 0.0
0.0 -4.065475717346742e-152 0.0
0.0 2.821679197687278e-151 0.0
0.0 -1.9572344569793298e-150 0.0
0.0 1.3567915462778028e-149 0.0
0.0 -9.399710050239016e-149 0.0
0.0 6.507927553732492e-148 0.0
0.0 -4.5029137914159483e-147 0.0
0.0 3.113600153951726e-146 0.0
0.0 -2.1515220918025374e-145 0.0
0.0 1.4857230972085553e-144 0.0
0.0 -1.0252604832155389e-143 0.0
0.0 7.070170152029402e-143 0.0
0.0 -4.872139066985792e-142 0.0
0.0 3.355044890074581e-141 0.0
0.0 -2.308661960277895e-140 0.0
0.0 1.5874498816207266e-139 0.0
0.0 -1.090715466455225e-138 0.0
0.0 7.488392325293309e-138 0.0
0.0 -5.137183135243818e-137 0.0
0.0 3.521391255516021e-136 0.0
0.0 -2.4118454352924937e-135 0.0
0.0 1.6505304388412462e-134 0.0
0.0 -1.1285715910089199e-133 0.0
0.0 7.710073822936125e-133 0.0
0.0 -5.2626419656140504e-132 0.0
0.0 3.5888611749405046e-131 0.0
0.0 -2.4451660706826024e-130 0.0
0.0 1.664369949212579e-129 0.0
0.0 -1.1318052384604411e-128 0.0
0.0 7.688895319527244e-128 0.0
0.0 -5.2181459972311634e-127 0.0
0.0 3.537672625843556e-126 0.0
0.0 -2.3958341843430946e-125 0.0
0.0 1.620770603397188e-124 0.0
0.0 -1.095214955195546e-123 0.0
0.0 7.392253597701497e-123 0.0
0.0 -4.983562853309106e-122 0.0
0.0 3.3556272992291543e-121 0.0
0.0 -2.2566407135955004e-120 0.0
0.0 1.5156164345218342e-119 0.0
0.0 -1.0165683683404213e-118 0.0
0.0 6.8090314079211815e-118 0.0
0.0 -4.5542339105077445e-117 0.0
0.0 3.041620088399548e-116 0.0
0.0 -2.0282948265165946e-115 0.0
0.0 1.3504198003911845e-114 0.0
0.0 -8.976175030147243e-114 0.0
0.0 5.956205698114217e-113 0.0
0.0 -3.945232267717414e-112 0.0
0.0 2.608350337753143e-111 0.0
0.0 -1.721125759937561e-110 0.0
0.0 1.133370792338041e-109 0.0
0.0 -7.447312425074791e-109 0.0
0.0 4.8825435431855716e-108 0.0
0.0 -3.1934288950800125e-107 0.0
0.0 2.083398812064047e-106 0.0
0.0 -1.355576171202776e-105 0.0
0.0 8.794997161200064e-105 0.0
0.0 -5.688813521375572e-104 0.0
0.0 3.6676169177298466e-103 0.0
0.0 -2.3561896206376576e-102 0.0
0.0 1.5078939619373795e-101 0.0
0.0 -9.609803587908736e-101 0.0
0.0 6.096260963784666e-100 0.0
0.0 -3.84774679785541e-99 0.0
0.0 2.4148429370838235e-98 0.0
0.0 -1.505914829875812e-97 0.0
0.0 9.32301908756895e-97 0.0
0.0 -5.723642209211752e-96 0.0
0.0 3.479554465681055e-95 0.0
0.0 -2.0906706007850392e-94 0.0
0.0 1.23833142183967e-93 0.0
0.0 -7.204345431696879e-93 0.0
0.0 4.0946551288803734e-92 0.0
0.0 -2.2543622093564997e-91 0.0
0.0 1.1849892930276853e-90 0.0
0.0 -5.782057408530466e-90 0.0
0.0 2.449387061528182e-89 0.0
0.0 -7.041957447020218e-89 0.0
0.0 -1.4172941092872562e-88 0.0
0.0 4.949521434036688e-87 0.0
0.0 -5.911581570401027e-86 0.0
0.0 5.636330775324213e-85 0.0
0.0 -4.85222565397596e-84 0.0
0.0 3.937771791807673e-83 0.0
0.0 -3.0739044343673336e-82 0.0
0.0 2.3338497095265755e-81 0.0
0.0 -1.7350922092691545e-80 0.0
0.0 1.2686641172396561e-79 0.0
0.0 -9.15072223750656e-79 0.0
0.0 6.525068209988984e-78 0.0
0.0 -4.6070809248940205e-77 0.0
0.0 3.224771657640059e-76 0.0
0.0 -2.239782567959168e-75 0.0
0.0 1.5447581851438772e-74 0.0
0.0 -1.0585504045105307e-73 0.0
0.0 7.210373598283726e-73 0.0
0.0 -4.883816119670607e-72 0.0
0.0 3.2903784687900685e-71 0.0
0.0 -2.2055807402617922e-70 0.0
0.0 1.4712174933077656e-69 0.0
0.0 -9.76738994966387e-69 0.0
0.0 6.454859438239849e-68 0.0
0.0 -4.246699058249406e-67 0.0
0.0 2.7817376013858406e-66 0.0
0.0 -1.8143494320502388e-65 0.0
0.0 1.1784348705740924e-64 0.0
0.0 -7.6227753356743e-64 0.0
0.0 4.911272471674506e-63 0.0
0.0 -3.1521839606126745e-62 0.0
0.0 2.0158039239195455e-61 0.0
0.0 -1.284737620563059e-60 0.0
0.0 8.163158269693751e-60 0.0
0.0 -5.173429089316267e-59 0.0
0.0 3.272201703299181e-58 0.0
0.0 -2.0672400566542828e-57 0.0
0.0 1.3058119092431075e-56 0.0
0.0 -8.258047061386938e-56 0.0
0.0 5.236958091175363e-55 0.0
0.0 -3.336667127624581e-54 0.0
0.0 2.1404916909222564e-53 0.0
0.0 -1.3857153676502867e-52 0.0
0.0 9.073252312599426e-52 0.0
0.0 -6.020250664369777e-51 0.0
0.0 4.053295076651632e-50 0.0
0.0 -2.770555722087204e-49 0.0
0.0 1.9217800403410777e-48 0.0
0.0 -1.3509338076764732e-47 0.0
0.0 9.603941145025737e-47 0.0
0.0 -6.8869786997579794e-46 0.0
0.0 4.967720465935449e-45 0.0
0.0 -3.5944419936353674e-44 0.0
0.0 2.6022610894959425e-43 0.0
0.0 -1.8812442014863688e-42 0.0
0.0 1.3572352425714472e-41 0.0
0.0 -9.81260531169277e-41 0.0
0.0 7.263438858164086e-40 0.0
0.0 -5.946673672006361e-39 0.0
0.0 6.463124414645814e-38 0.0
0.0 -1.0803117999133196e-36 0.0
0.0 2.4455974371671523e-35 0.0
0.0 -6.170032254993226e-34 0.0
0.0 1.584850964309018e-32 0.0
0.0 -4.0285789391316125e-31 0.0
0.0 1.0044721576909812e-29 0.0
0.0 -2.4473719386971128e-28 0.0
0.0 5.811017175831337e-27 0.0
0.0 -1.3409093238890048e-25 0.0
0.0 2.9976883176934884e-24 0.0
0.0 -6.468690894243812e-23 0.0
0.0 1.3414348357510321e-21 0.0
0.0 -2.65886479310309e-20 0.0
0.0 5.003323727795932e-19 0.0
0.0 -8.861040294309502e-18 0.0
0.0 1.4600244778106664e-16 0.0
0.0 -2.2023847734353583e-15 0.0
0.0 2.969203110188785e-14 0.0
0.0 -3.43742339021657e-13 0.0
0.0 3.1540822947688952e-12 0.0
0.0 -1.8052078082149e-11 0.0
0.0 -3.089865418309959e-11 0.0
0.0 1.987006330920791e-09 0.0
0.0 -1.785784570136623e-08 0.0
0.0 -2.026229904288994e-08 0.0
0.0 1.4656470562592986e-06 0.0
0.0 -1.2850195226105795e-06 0.0
0.0 -9.804988371874893e-05 0.0
0.0 -0.0005469681719951057 0.0
0.0 -0.0013902721291282599 0.0
0.0 -0.001917086119107167 0.0
0.0 -0.0017635222481214381 0.0
0.0 -0.0017517769676694127 0.0
0.0 -0.0018438178281899521 0.0
0.0 -0.0017364803405156932 0.0
0.0 -0.00183204485361876 0.0
0.0 -0.0017540814794787822 0.0
0.0 -0.0018179176580990259 0.0
0.0 -0.0018179176580988663 0.0
0.0 -0.0017540814794789813 0.0
0.0 -0.001832044853618613 0.0
0.0 -0.0017364803405158574 0.0
0.0 -0.0018438178281894614 0.0
0.0 -0.0017517769676705837 0.0
0.0 -0.0017635222481194274 0.0
0.0 -0.0019170861191085359 0.0
0.0 -0.0013902721291395167 0.0
0.0 -0.0005469681720058554 0.0
0.0 -9.804988372263618e-05 0.0
0.0 -1.285019522993848e-06 0.0
0.0 1.4656470563274953e-06 0.0
0.0 -2.026229903650812e-08 0.0
0.0 -1.7857845703107753e-08 0.0
0.0 1.9870063310101837e-09 0.0
0.0 -3.089865416783703e-11 0.0
0.0 -1.805207808612325e-11 0.0
0.0 3.1540822952894148e-12 0.0
0.0 -3.4374233906943056e-13 0.0
0.0 2.96920311044675e-14 0.0
0.0 -2.202384773236572e-15 0.0
0.0 1.460024476732221e-16 0.0
0.0 -8.861040266453807e-18 0.0
0.0 5.003323667106596e-19 0.0
0.0 -2.6588646709250147e-20 0.0
0.0 1.3414346021565205e-21 0.0
0.0 -6.468686604836078e-23 0.0
0.0 2.9976807060273913e-24 0.0
0.0 -1.3408962160088368e-25 0.0
0.0 5.810797411665734e-27 0.0
0.0 -2.4470122729537986e-28 0.0
0.0 1.0038962835362307e-29 0.0
0.0 -4.019540791793536e-31 0.0
0.0 1.5709228864615635e-32 0.0
0.0 -5.958963868002308e-34 0.0
0.0 2.130620142771566e-35 0.0
0.0 -6.168389490355271e-37 0.0
0.0 -2.6975952085412796e-39 0.0
0.0 3.7215610634930316e-39 0.0
0.0 -6.477370970712153e-40 0.0
0.0 9.541717578208869e-41 0.0
0.0 -1.3484535993562003e-41 0.0
0.0 1.8790305986200788e-42 0.0
0.0 -2.602558389890972e-43 0.0
0.0 3.595910222292462e-44 0.0
0.0 -4.969975513074492e-45 0.0
0.0 6.889976138244581e-46 0.0
0.0 -9.607763370767243e-47 0.0
0.0 1.3514121295883377e-47 0.0
0.0 -1.9223709061259973e-48 0.0
0.0 2.771277376083043e-49 0.0
0.0 -4.0541669557253246e-50 0.0
0.0 6.021292808644663e-51 0.0
0.0 -9.074484636309012e-52 0.0
0.0 1.3858595019378858e-52 0.0
0.0 -2.1406583812145114e-53 0.0
0.0 3.3368576429842994e-54 0.0
0.0 -5.23717312255607e-55 0.0
0.0 8.258286485063482e-56 0.0
0.0 -1.3058381684051987e-56 0.0
0.0 2.0672683659553893e-57 0.0
0.0 -3.2722316114837925e-58 0.0
0.0 5.1734599132358e-59 0.0
0.0 -8.163189039382129e-60 0.0
0.0 1.2847405601004772e-60 0.0
0.0 -2.0158065517620933e-61 0.0
0.0 3.152186052007042e-62 0.0
0.0 -4.911273742074424e-63 0.0
0.0 7.622775430289955e-64 0.0
0.0 -1.1784347187865687e-64 0.0
0.0 1.814349065854124e-65 0.0
0.0 -2.7817369566995767e-66 0.0
0.0 4.246698058492152e-67 0.0
0.0 -6.454857992606795e-68 0.0
0.0 9.767387951248108e-69 0.0
0.0 -1.471217225683717e-69 0.0
0.0 2.2055803903183956e-70 0.0
0.0 -3.2903780197237928e-71 0.0
0.0 4.883815552161534e-72 0.0
0.0 -7.210372890231818e-73 0.0
0.0 1.0585503171354585e-73 0.0
0.0 -1.5447580783488055e-74 0.0
0.0 2.239782438529992e-75 0.0
0.0 -3.2247715019678585e-76 0.0
0.0 4.607080738943413e-77 0.0
0.0 -6.525067989265485e-78 0.0
0.0 9.150721977022555e-79 0.0
0.0 -1.2686640866630034e-79 0.0
0.0 1.735092173553828e-80 0.0
0.0 -2.3338496679967743e-81 0.0
0.0 3.073904386272184e-82 0.0
0.0 -3.937771736303868e-83 0.0
0.0 4.8522255900989865e-84 0.0
0.0 -5.63633070194e-85 0.0
0.0 5.9115814861216466e-86 0.0
0.0 -4.949521337078616e-87 0.0
0.0 1.417293997232171e-88 0.0
0.0 7.041957577631371e-89 0.0
0.0 -2.4493870769614136e-89 0.0
0.0 5.782057427132789e-90 0.0
0.0 -1.1849892953304911e-90 0.0
0.0 2.2543622123025678e-91 0.0
0.0 -4.094655132792109e-92 0.0
0.0 7.2043454370934545e-93 0.0
0.0 -1.2383314226113089e-93 0.0
0.0 2.0906706019226285e-94 0.0
0.0 -3.479554467398881e-95 0.0
0.0 5.723642211851385e-96 0.0
0.0 -9.323019091672256e-97 0.0
0.0 1.5059148305182352e-97 0.0
0.0 -2.414842938093374e-98 0.0
0.0 3.847746799444065e-99 0.0
0.0 -6.096260966283954e-100 0.0
0.0 9.609803591835697e-101 0.0
0.0 -1.5078939625532495e-101 0.0
0.0 2.3561896216013245e-102 0.0
0.0 -3.6676169192336634e-103 0.0
0.0 5.688813523716545e-104 0.0
0.0 -8.794997164837018e-105 0.0
0.0 1.3555761717657447e-105 0.0
0.0 -2.0833988129307813e-106 0.0
0.0 3.193428896406016e-107 0.0
0.0 -4.882543545202951e-108 0.0
0.0 7.447312428128852e-109 0.0
0.0 -1.1333707927983078e-109 0.0
0.0 1.7211257606284146e-110 0.0
0.0 -2.6083503387863566e-111 0.0
0.0 3.9452322692576234e-112 0.0
0.0 -5.956205700403007e-113 0.0
0.0 8.976175033539096e-114 0.0
0.0 -1.3504198008925548e-114 0.0
0.0 2.0282948272558938e-115 0.0
0.0 -3.0416200894872e-116 0.0
0.0 4.554233912104418e-117 0.0
0.0 -6.809031410260209e-118 0.0
0.0 1.0165683686824206e-118 0.0
0.0 -1.5156164350209488e-119 0.0
0.0 2.2566407143225516e-120 0.0
0.0 -3.355627300286275e-121 0.0
0.0 4.983562854843555e-122 0.0
0.0 -7.392253599924846e-123 0.0
0.0 1.0952149555171772e-123 0.0
0.0 -1.6207706038616499e-124 0.0
0.0 2.3958341850127256e-125 0.0
0.0 -3.5376726268073773e-126 0.0
0.0 5.218145998616066e-127 0.0
0.0 -7.688895321514102e-128 0.0
0.0 1.1318052387449956e-128 0.0
0.0 -1.6643699496194333e-129 0.0
0.0 2.445166071263357e-130 0.0
0.0 -3.5888611757681567e-131 0.0
0.0 5.2626419667913804e-132 0.0
0.0 -7.710073824608066e-133 0.0
0.0 1.128571591245936e-133 0.0
0.0 -1.650530439176574e-134 0.0
0.0 2.4118454357660465e-135 0.0
0.0 -3.521391256183466e-136 0.0
0.0 5.137183136182716e-137 0.0
0.0 -7.488392326611414e-138 0.0
0.0 1.0907154666398317e-138 0.0
0.0 -1.5874498818787427e-139 0.0
0.0 2.308661960637655e-140 0.0
0.0 -3.3550448905748564e-141 0.0
0.0 4.8721390676797386e-142 0.0
0.0 -7.070170152989412e-143 0.0
0.0 1.02526048334794e-143 0.0
0.0 -1.485723097390521e-144 0.0
0.0 2.151522092051825e-145 0.0
0.0 -3.113600154291847e-146 0.0
0.0 4.502913791878152e-147 0.0
0.0 -6.50792755435771e-148 0.0
0.0 9.399710051080306e-149 0.0
0.0 -1.3567915463902458e-149 0.0
0.0 1.9572344571289235e-150 0.0
0.0 -2.8216791978842183e-151 0.0
0.0 4.0654757176067906e-152 0.0
0.0 -5.854069023276006e-153 0.0
0.0 8.424627603030174e-154 0.0
0.0 -1.211695695954397e-154 0.0
0.0 1.7417662457080634e-155 0.0
0.0 -2.502320913849114e-156 0.0
0.0 3.5929920813503564e-157 0.0
0.0 -5.156236549044665e-158 0.0
0.0 7.395641308539394e-159 0.0
0.0 -1.0602012533713323e-159 0.0
0.0 1.5190539870823293e-160 0.0
0.0 -2.1753713523108996e-161 0.0
0.0 3.113663720351523e-162 0.0
0.0 -4.4544167548386665e-163 0.0
0.0 6.369326211728793e-164 0.0
0.0 -9.102951741915544e-165 0.0
0.0 1.3003480940107451e-165 0.0
0.0 -1.8566417794216353e-166 0.0
0.0 2.649659885158976e-167 0.0
0.0 -3.7796183079671617e-168 0.0
0.0 5.388904101903864e-169 0.0
0.0 -7.676833975777985e-170 0.0
0.0 1.0718362892934413e-170 0.0
0.0 1.0718362892823886e-170 0.0
0.0 -7.676833975685019e-170 0.0
0.0 5.388904101828113e-169 0.0
0.0 -3.779618307906068e-168 0.0
0.0 2.6496598851103357e-167 0.0
0.0 -1.8566417793833706e-166 0.0
0.0 1.3003480939811243e-165 0.0
0.0 -9.10295174168982e-165 0.0
0.0 6.369326211559431e-164 0.0
0.0 -4.454416754712674e-163 0.0
0.0 3.1136637202583237e-162 0.0
0.0 -2.1753713522419228e-161 0.0
0.0 1.5190539870313446e-160 0.0
0.0 -1.0602012533337292e-159 0.0
0.0 7.395641308262209e-159 0.0
0.0 -5.156236548840187e-158 0.0
0.0 3.592992081199471e-157 0.0
0.0 -2.5023209137376437e-156 0.0
0.0 1.7417662456254592e-155 0.0
0.0 -1.2116956958929904e-154 0.0
0.0 8.424627602571837e-154 0.0
0.0 -5.854069022931906e-153 0.0
0.0 4.065475717346739e-152 0.0
0.0 -2.8216791976872893e-151 0.0
0.0 1.95723445697933e-150 0.0
0.0 -1.3567915462778063e-149 0.0
0.0 9.399710050239044e-149 0.0
0.0 -6.507927553732513e-148 0.0
0.0 4.5029137914159655e-147 0.0
0.0 -3.1136001539517415e-146 0.0
0.0 2.151522091802546e-145 0.0
0.0 -1.485723097208565e-144 0.0
0.0 1.025260483215547e-143 0.0
0.0 -7.070170152029486e-143 0.0
0.0 4.872139066985824e-142 0.0
0.0 -3.355044890074586e-141 0.0
0.0 2.3086619602778917e-140 0.0
0.0 -1.5874498816207245e-139 0.0
0.0 1.0907154664552285e-138 0.0
0.0 -7.488392325293293e-138 0.0
0.0 5.137183135243804e-137 0.0
0.0 -3.521391255516026e-136 0.0
0.0 2.4118454352924962e-135 0.0
0.0 -1.6505304388412582e-134 0.0
0.0 1.1285715910089257e-133 0.0
0.0 -7.710073822936253e-133 0.0
0.0 5.262641965614153e-132 0.0
0.0 -3.5888611749406317e-131 0.0
0.0 2.445166070682719e-130 0.0
0.0 -1.664369949212698e-129 0.0
0.0 1.1318052384605539e-128 0.0
0.0 -7.688895319528288e-128 0.0
0.0 5.218145997232139e-127 0.0
0.0 -3.537672625844507e-126 0.0
0.0 2.395834184344022e-125 0.0
0.0 -1.6207706033980666e-124 0.0
0.0 1.095214955196393e-123 0.0
0.0 -7.392253597709509e-123 0.0
0.0 4.983562853316801e-122 0.0
0.0 -3.355627299236429e-121 0.0
0.0 2.2566407136024342e-120 0.0
0.0 -1.515616434528416e-119 0.0
0.0 1.0165683683466655e-118 0.0
0.0 -6.809031407980454e-118 0.0
0.0 4.554233910563937e-117 0.0
0.0 -3.041620088452739e-116 0.0
0.0 2.0282948265669305e-115 0.0
0.0 -1.3504198004387883e-114 0.0
0.0 8.976175030596886e-114 0.0
0.0 -5.956205698538729e-113 0.0
0.0 3.9452322681178094e-112 0.0
0.0 -2.6083503381304502e-111 0.0
0.0 1.7211257602927584e-110 0.0
0.0 -1.133370792672139e-109 0.0
0.0 7.447312428214167e-109 0.0
0.0 -4.882543546132708e-108 0.0
0.0 3.1934288978438717e-107 0.0
0.0 -2.0833988146534578e-106 0.0
0.0 1.3555761736262564e-105 0.0
0.0 -8.794997183858531e-105 0.0
0.0 5.688813542537821e-104 0.0
0.0 -3.667616937473497e-103 0.0
0.0 2.356189639037642e-102 0.0
0.0 -1.5078939790660394e-101 0.0
0.0 9.609803747179683e-101 0.0
0.0 -6.096261111711856e-100 0.0
0.0 3.847746935085199e-99 0.0
0.0 -2.4148430642373e-98 0.0
0.0 1.50591494754906e-97 0.0
0.0 -9.323020175212828e-97 0.0
0.0 5.723643213237559e-96 0.0
0.0 -3.479555391319827e-95 0.0
0.0 2.0906714530324815e-94 0.0
0.0 -1.238332205460684e-93 0.0
0.0 7.204352627031206e-93 0.0
0.0 -4.094661726517385e-92 0.0
0.0 2.2543682503171846e-91 0.0
0.0 -1.184994816230558e-90 0.0
0.0 5.7821078317082e-90 0.0
0.0 -2.4494330247098362e-89 0.0
0.0 7.042375774697409e-89 0.0
0.0 1.4169139765323372e-88 0.0
0.0 -4.949176567362222e-87 0.0
0.0 5.9112692150313344e-86 0.0
0.0 -5.636048344178859e-85 0.0
0.0 4.851970721258002e-84 0.0
0.0 -3.9375420865726e-83 0.0
0.0 3.073697834091201e-82 0.0
0.0 -2.3336642336930046e-81 0.0
0.0 1.7349260129924298e-80 0.0
0.0 -1.2685154849426521e-79 0.0
0.0 9.149395629130075e-79 0.0
0.0 -6.523886559915943e-78 0.0
0.0 4.6060305851054844e-77 0.0
0.0 -3.2238400288917524e-76 0.0
0.0 2.2389580415605304e-75 0.0
0.0 -1.5440300861284752e-74 0.0
0.0 1.0579089363039426e-73 0.0
0.0 -7.204735505087134e-73 0.0
0.0 4.878872622032254e-72 0.0
0.0 -3.286054796197698e-71 0.0
0.0 2.201808860034637e-70 0.0
0.0 -1.4679356442908462e-69 0.0
0.0 9.738912403032562e-69 0.0
0.0 -6.4302174312155075e-68 0.0
0.0 4.2254370692213864e-67 0.0
0.0 -2.763446105940943e-66 0.0
0.0 1.7986612152490102e-65 0.0
0.0 -1.1650215359362764e-64 0.0
0.0 7.508462072249127e-64 0.0
0.0 -4.814174748381456e-63 0.0
0.0 3.0699922974514e-62 0.0
0.0 -1.9464766299380495e-61 0.0
0.0 1.226475335003111e-60 0.0
0.0 -7.675378251815936e-60 0.0
0.0 4.766651177250221e-59 0.0
0.0 -2.934348328518815e-58 0.0
0.0 1.787809319659829e-57 0.0
0.0 -1.0757052703998849e-56 0.0
0.0 6.371691630849293e-56 0.0
0.0 -3.697798412312578e-55 0.0
0.0 2.0868925824493583e-54 0.0
0.0 -1.1308089105878835e-53 0.0
0.0 5.742763109469652e-53 0.0
0.0 -2.587632244104001e-52 0.0
0.0 8.65914135770506e-52 0.0
0.0 1.8766068753392656e-52 0.0
0.0 -4.265987032487804e-50 0.0
0.0 5.7224380426795095e-49 0.0
0.0 -5.814647883161144e-48 0.0
0.0 5.262748144022175e-47 0.0
0.0 -4.465896247626258e-46 0.0
0.0 3.6345832384253405e-45 0.0
0.0 -2.8707244010885955e-44 0.0
0.0 2.2156310590894522e-43 0.0
0.0 -1.678461595469511e-42 0.0
0.0 1.2531427426945754e-41 0.0
0.0 -9.29189185272481e-41 0.0
0.0 7.011160251150323e-40 0.0
0.0 -5.8294195373344196e-39 0.0
0.0 6.411674171562046e-38 0.0
0.0 -1.0782449098449406e-36 0.0
0.0 2.444891048391134e-35 0.0
0.0 -6.169877262515759e-34 0.0
0.0 1.5848545528367198e-32 0.0
0.0 -4.028586855016559e-31 0.0
0.0 1.0044728631500385e-29 0.0
0.0 -2.4473724355548635e-28 0.0
0.0 5.811017483470833e-27 0.0
0.0 -1.3409093411712045e-25 0.0
0.0 2.9976883265470856e-24 0.0
0.0 -6.468690898317009e-23 0.0
0.0 1.3414348359108883e-21 0.0
0.0 -2.658864793147515e-20 0.0
0.0 5.0033237277934705e-19 0.0
0.0 -8.861040294293802e-18 0.0
0.0 1.4600244778089033e-16 0.0
0.0 -2.202384773434112e-15 0.0
0.0 2.969203110187869e-14 0.0
0.0 -3.437423390216013e-13 0.0
0.0 3.1540822947687458e-12 0.0
0.0 -1.8052078082147574e-11 0.0
0.0 -3.0898654183123683e-11 0.0
0.0 1.987006330920771e-09 0.0
0.0 -1.785784570136868e-08 0.0
0.0 -2.0262299042868184e-08 0.0
0.0 1.4656470562590718e-06 0.0
0.0 -1.285019522608172e-06 0.0
0.0 -9.804988371875597e-05 0.0
0.0 -0.0005469681719951058 0.0
0.0 -0.001390272129128263 0.0
0.0 -0.0019170861191071616 0.0
0.0 -0.001763522248121438 0.0
0.0 -0.0017517769676694132 0.0
0.0 -0.0018438178281899435 0.0
0.0 -0.0017364803405156936 0.0
0.0 -0.0018320448536187789 0.0
0.0 -0.0017540814794787792 0.0
0.0 -0.0018179176580990358 0.0
0.0 -0.0018179176580988572 0.0
0.0 -0.0017540814794789821 0.0
0.0 -0.001832044853618606 0.0
0.0 -0.00173648034051586 0.0
0.0 -0.0018438178281894736 0.0
0.0 -0.0017517769676705843 0.0
0.0 -0.0017635222481194274 0.0
0.0 -0.0019170861191085396 0.0
0.0 -0.0013902721291395074 0.0
0.0 -0.0005469681720058603 0.0
0.0 -9.804988372263363e-05 0.0
0.0 -1.285019522994508e-06 0.0
0.0 1.4656470563276055e-06 0.0
0.0 -2.0262299036537258e-08 0.0
0.0 -1.7857845703104805e-08 0.0
0.0 1.987006331010006e-09 0.0
0.0 -3.0898654167801293e-11 0.0
0.0 -1.805207808612715e-11 0.0
0.0 3.1540822952896922e-12 0.0
0.0 -3.4374233906947105e-13 0.0
0.0 2.9692031104472413e-14 0.0
0.0 -2.2023847732365224e-15 0.0
0.0 1.4600244767315917e-16 0.0
0.0 -8.861040266431643e-18 0.0
0.0 5.003323667052138e-19 0.0
0.0 -2.658864670804236e-20 0.0
0.0 1.3414346019082672e-21 0.0
0.0 -6.468686599988572e-23 0.0
0.0 2.9976806970362425e-24 0.0
0.0 -1.3408962002424086e-25 0.0
0.0 5.810797153691636e-27 0.0
0.0 -2.447011890029328e-28 0.0
0.0 1.0038958031752479e-29 0.0
0.0 -4.019536949786969e-31 0.0
0.0 1.570926238279916e-32 0.0