# vtk DataFile Version 2.0
data_90
ASCII
DATASET UNSTRUCTURED_GRID
POINTS 804 float
0.0 0.0 0.0
0.1 0.0 0.0
0.1 20.0 0.0
0.0 20.0 0.0
0.0 0.0 -0.1
0.1 0.0 -0.1
0.1 20.0 -0.1
0.0 20.0 -0.1
0.1 0.09999999999992462 0.0
0.1 0.1999999999998517 0.0
0.1 0.2999999999997818 0.0
0.1 0.399999999999712 0.0
0.1 0.4999999999996377 0.0
0.1 0.5999999999995541 0.0
0.1 0.6999999999994495 0.0
0.1 0.7999999999993355 0.0
0.1 0.8999999999992101 0.0
0.1 0.999999999999102 0.0
0.1 1.099999999999006 0.0
0.1 1.199999999998936 0.0
0.1 1.299999999998867 0.0
0.1 1.399999999998797 0.0
0.1 1.499999999998727 0.0
0.1 1.599999999998657 0.0
0.1 1.699999999998587 0.0
0.1 1.799999999998517 0.0
0.1 1.899999999998447 0.0
0.1 1.999999999998378 0.0
0.1 2.099999999998308 0.0
0.1 2.199999999998238 0.0
0.1 2.299999999998168 0.0
0.1 2.399999999998067 0.0
0.1 2.499999999997942 0.0
0.1 2.599999999997706 0.0
0.1 2.699999999997444 0.0
0.1 2.799999999997153 0.0
0.1 2.899999999996861 0.0
0.1 2.999999999996569 0.0
0.1 3.099999999996277 0.0
0.1 3.199999999995984 0.0
0.1 3.299999999995693 0.0
0.1 3.399999999995401 0.0
0.1 3.499999999995108 0.0
0.1 3.599999999994816 0.0
0.1 3.699999999994525 0.0
0.1 3.799999999994232 0.0
0.1 3.89999999999394 0.0
0.1 3.999999999993648 0.0
0.1 4.099999999993356 0.0
0.1 4.199999999993064 0.0
0.1 4.299999999992772 0.0
0.1 4.399999999992479 0.0
0.1 4.499999999992188 0.0
0.1 4.599999999991895 0.0
0.1 4.699999999991603 0.0
0.1 4.799999999991311 0.0
0.1 4.899999999991019 0.0
0.1 4.999999999990727 0.0
0.1 5.099999999990436 0.0
0.1 5.199999999990144 0.0
0.1 5.299999999989851 0.0
0.1 5.399999999989559 0.0
0.1 5.499999999989267 0.0
0.1 5.599999999988975 0.0
0.1 5.699999999988683 0.0
0.1 5.799999999988391 0.0
0.1 5.899999999988099 0.0
0.1 5.999999999987806 0.0
0.1 6.099999999987515 0.0
0.1 6.199999999987222 0.0
0.1 6.299999999986929 0.0
0.1 6.399999999986638 0.0
0.1 6.499999999986345 0.0
0.1 6.599999999986054 0.0
0.1 6.699999999985762 0.0
0.1 6.79999999998547 0.0
0.1 6.899999999985177 0.0
0.1 6.999999999984885 0.0
0.1 7.099999999984593 0.0
0.1 7.199999999984302 0.0
0.1 7.299999999984009 0.0
0.1 7.399999999983717 0.0
0.1 7.499999999983426 0.0
0.1 7.599999999983132 0.0
0.1 7.699999999982841 0.0
0.1 7.799999999982549 0.0
0.1 7.899999999982256 0.0
0.1 7.999999999982034 0.0
0.1 8.099999999981964 0.0
0.1 8.199999999982062 0.0
0.1 8.299999999982214 0.0
0.1 8.399999999982366 0.0
0.1 8.499999999982517 0.0
0.1 8.59999999998267 0.0
0.1 8.699999999982822 0.0
0.1 8.799999999982973 0.0
0.1 8.899999999983125 0.0
0.1 8.999999999983277 0.0
0.1 9.09999999998343 0.0
0.1 9.19999999998358 0.0
0.1 9.299999999983733 0.0
0.1 9.399999999983885 0.0
0.1 9.499999999984038 0.0
0.1 9.599999999984188 0.0
0.1 9.69999999998434 0.0
0.1 9.799999999984493 0.0
0.1 9.899999999984646 0.0
0.1 9.999999999984798 0.0
0.1 10.09999999998495 0.0
0.1 10.1999999999851 0.0
0.1 10.29999999998525 0.0
0.1 10.39999999998541 0.0
0.1 10.49999999998556 0.0
0.1 10.59999999998571 0.0
0.1 10.69999999998586 0.0
0.1 10.79999999998601 0.0
0.1 10.89999999998616 0.0
0.1 10.99999999998632 0.0
0.1 11.09999999998647 0.0
0.1 11.19999999998662 0.0
0.1 11.29999999998677 0.0
0.1 11.39999999998693 0.0
0.1 11.49999999998708 0.0
0.1 11.59999999998723 0.0
0.1 11.69999999998738 0.0
0.1 11.79999999998754 0.0
0.1 11.89999999998769 0.0
0.1 11.99999999998784 0.0
0.1 12.09999999998799 0.0
0.1 12.19999999998814 0.0
0.1 12.2999999999883 0.0
0.1 12.39999999998845 0.0
0.1 12.4999999999886 0.0
0.1 12.59999999998875 0.0
0.1 12.6999999999889 0.0
0.1 12.79999999998905 0.0
0.1 12.89999999998921 0.0
0.1 12.99999999998936 0.0
0.1 13.09999999998951 0.0
0.1 13.19999999998966 0.0
0.1 13.29999999998982 0.0
0.1 13.39999999998997 0.0
0.1 13.49999999999012 0.0
0.1 13.59999999999027 0.0
0.1 13.69999999999042 0.0
0.1 13.79999999999057 0.0
0.1 13.89999999999073 0.0
0.1 13.99999999999088 0.0
0.1 14.09999999999103 0.0
0.1 14.19999999999118 0.0
0.1 14.29999999999134 0.0
0.1 14.39999999999149 0.0
0.1 14.49999999999164 0.0
0.1 14.59999999999179 0.0
0.1 14.69999999999194 0.0
0.1 14.7999999999921 0.0
0.1 14.89999999999225 0.0
0.1 14.9999999999924 0.0
0.1 15.09999999999255 0.0
0.1 15.1999999999927 0.0
0.1 15.29999999999285 0.0
0.1 15.39999999999301 0.0
0.1 15.49999999999316 0.0
0.1 15.59999999999331 0.0
0.1 15.69999999999346 0.0
0.1 15.79999999999362 0.0
0.1 15.89999999999377 0.0
0.1 15.99999999999392 0.0
0.1 16.09999999999407 0.0
0.1 16.19999999999422 0.0
0.1 16.29999999999437 0.0
0.1 16.39999999999453 0.0
0.1 16.49999999999468 0.0
0.1 16.59999999999483 0.0
0.1 16.69999999999498 0.0
0.1 16.79999999999514 0.0
0.1 16.89999999999528 0.0
0.1 16.99999999999544 0.0
0.1 17.09999999999559 0.0
0.1 17.19999999999574 0.0
0.1 17.29999999999589 0.0
0.1 17.39999999999605 0.0
0.1 17.4999999999962 0.0
0.1 17.59999999999635 0.0
0.1 17.6999999999965 0.0
0.1 17.79999999999665 0.0
0.1 17.89999999999681 0.0
0.1 17.99999999999696 0.0
0.1 18.09999999999711 0.0
0.1 18.19999999999726 0.0
0.1 18.29999999999742 0.0
0.1 18.39999999999757 0.0
0.1 18.49999999999772 0.0
0.1 18.59999999999787 0.0
0.1 18.69999999999802 0.0
0.1 18.79999999999818 0.0
0.1 18.89999999999833 0.0
0.1 18.99999999999848 0.0
0.1 19.09999999999863 0.0
0.1 19.19999999999878 0.0
0.1 19.29999999999894 0.0
0.1 19.39999999999909 0.0
0.1 19.49999999999924 0.0
0.1 19.59999999999939 0.0
0.1 19.69999999999955 0.0
0.1 19.7999999999997 0.0
0.1 19.89999999999985 0.0
0.0 19.9 0.0
0.0 19.8 0.0
0.0 19.7 0.0
0.0 19.6 0.0
0.0 19.5 0.0
0.0 19.4 0.0
0.0 19.3 0.0
0.0 19.2 0.0
0.0 19.1 0.0
0.0 19.0 0.0
0.0 18.9 0.0
0.0 18.8 0.0
0.0 18.7 0.0
0.0 18.6 0.0
0.0 18.5 0.0
0.0 18.4 0.0
0.0 18.3 0.0
0.0 18.2 0.0
0.0 18.1 0.0
0.0 18.0 0.0
0.0 17.9 0.0
0.0 17.8 0.0
0.0 17.7 0.0
0.0 17.6 0.0
0.0 17.5 0.0
0.0 17.4 0.0
0.0 17.3 0.0
0.0 17.2 0.0
0.0 17.09999999999999 0.0
0.0 17.0 0.0
0.0 16.9 0.0
0.0 16.8 0.0
0.0 16.7 0.0
0.0 16.59999999999999 0.0
0.0 16.49999999999999 0.0
0.0 16.4 0.0
0.0 16.29999999999999 0.0
0.0 16.2 0.0
0.0 16.09999999999999 0.0
0.0 15.99999999999999 0.0
0.0 15.89999999999999 0.0
0.0 15.79999999999999 0.0
0.0 15.69999999999999 0.0
0.0 15.59999999999999 0.0
0.0 15.49999999999999 0.0
0.0 15.39999999999999 0.0
0.0 15.29999999999999 0.0
0.0 15.19999999999999 0.0
0.0 15.09999999999999 0.0
0.0 14.99999999999999 0.0
0.0 14.89999999999999 0.0
0.0 14.79999999999999 0.0
0.0 14.69999999999999 0.0
0.0 14.59999999999999 0.0
0.0 14.49999999999999 0.0
0.0 14.39999999999999 0.0
0.0 14.29999999999999 0.0
0.0 14.19999999999999 0.0
0.0 14.09999999999999 0.0
0.0 13.99999999999999 0.0
0.0 13.89999999999999 0.0
0.0 13.79999999999999 0.0
0.0 13.69999999999999 0.0
0.0 13.59999999999999 0.0
0.0 13.49999999999999 0.0
0.0 13.39999999999999 0.0
0.0 13.29999999999999 0.0
0.0 13.19999999999999 0.0
0.0 13.09999999999999 0.0
0.0 12.99999999999999 0.0
0.0 12.89999999999999 0.0
0.0 12.79999999999999 0.0
0.0 12.69999999999999 0.0
0.0 12.59999999999999 0.0
0.0 12.49999999999999 0.0
0.0 12.39999999999999 0.0
0.0 12.29999999999999 0.0
0.0 12.19999999999999 0.0
0.0 12.09999999999999 0.0
0.0 11.99999999999999 0.0
0.0 11.89999999999999 0.0
0.0 11.79999999999999 0.0
0.0 11.69999999999999 0.0
0.0 11.59999999999999 0.0
0.0 11.49999999999999 0.0
0.0 11.39999999999999 0.0
0.0 11.29999999999999 0.0
0.0 11.19999999999999 0.0
0.0 11.09999999999999 0.0
0.0 10.99999999999999 0.0
0.0 10.89999999999999 0.0
0.0 10.79999999999999 0.0
0.0 10.69999999999999 0.0
0.0 10.59999999999999 0.0
0.0 10.49999999999999 0.0
0.0 10.39999999999999 0.0
0.0 10.29999999999999 0.0
0.0 10.19999999999999 0.0
0.0 10.09999999999999 0.0
0.0 9.999999999999993 0.0
0.0 9.899999999999993 0.0
0.0 9.799999999999994 0.0
0.0 9.699999999999992 0.0
0.0 9.599999999999993 0.0
0.0 9.499999999999993 0.0
0.0 9.399999999999993 0.0
0.0 9.299999999999995 0.0
0.0 9.199999999999996 0.0
0.0 9.099999999999994 0.0
0.0 8.999999999999995 0.0
0.0 8.899999999999995 0.0
0.0 8.799999999999994 0.0
0.0 8.699999999999994 0.0
0.0 8.599999999999994 0.0
0.0 8.499999999999995 0.0
0.0 8.399999999999995 0.0
0.0 8.299999999999994 0.0
0.0 8.199999999999994 0.0
0.0 8.099999999999994 0.0
0.0 7.999999999999993 0.0
0.0 7.899999999999995 0.0
0.0 7.799999999999995 0.0
0.0 7.699999999999996 0.0
0.0 7.599999999999996 0.0
0.0 7.499999999999996 0.0
0.0 7.399999999999995 0.0
0.0 7.299999999999995 0.0
0.0 7.199999999999996 0.0
0.0 7.099999999999994 0.0
0.0 6.999999999999995 0.0
0.0 6.899999999999995 0.0
0.0 6.799999999999995 0.0
0.0 6.699999999999996 0.0
0.0 6.599999999999994 0.0
0.0 6.499999999999995 0.0
0.0 6.399999999999997 0.0
0.0 6.299999999999997 0.0
0.0 6.199999999999996 0.0
0.0 6.099999999999996 0.0
0.0 5.999999999999996 0.0
0.0 5.899999999999997 0.0
0.0 5.799999999999997 0.0
0.0 5.699999999999996 0.0
0.0 5.599999999999996 0.0
0.0 5.499999999999996 0.0
0.0 5.399999999999995 0.0
0.0 5.299999999999995 0.0
0.0 5.199999999999996 0.0
0.0 5.099999999999996 0.0
0.0 4.999999999999998 0.0
0.0 4.899999999999999 0.0
0.0 4.799999999999997 0.0
0.0 4.699999999999998 0.0
0.0 4.599999999999998 0.0
0.0 4.499999999999996 0.0
0.0 4.399999999999997 0.0
0.0 4.299999999999997 0.0
0.0 4.199999999999998 0.0
0.0 4.099999999999998 0.0
0.0 3.999999999999996 0.0
0.0 3.899999999999999 0.0
0.0 3.799999999999997 0.0
0.0 3.699999999999996 0.0
0.0 3.599999999999998 0.0
0.0 3.5 0.0
0.0 3.399999999999999 0.0
0.0 3.299999999999997 0.0
0.0 3.199999999999999 0.0
0.0 3.099999999999998 0.0
0.0 3.0 0.0
0.0 2.899999999999999 0.0
0.0 2.799999999999997 0.0
0.0 2.699999999999999 0.0
0.0 2.599999999999998 0.0
0.0 2.499999999999996 0.0
0.0 2.399999999999999 0.0
0.0 2.299999999999997 0.0
0.0 2.199999999999999 0.0
0.0 2.100000000000001 0.0
0.0 2.0 0.0
0.0 1.899999999999999 0.0
0.0 1.800000000000001 0.0
0.0 1.699999999999999 0.0
0.0 1.599999999999998 0.0
0.0 1.5 0.0
0.0 1.399999999999999 0.0
0.0 1.299999999999997 0.0
0.0 1.199999999999999 0.0
0.0 1.099999999999998 0.0
0.0 1.0 0.0
0.0 0.8999999999999986 0.0
0.0 0.8000000000000007 0.0
0.0 0.6999999999999993 0.0
0.0 0.6000000000000014 0.0
0.0 0.5 0.0
0.0 0.3999999999999986 0.0
0.0 0.3000000000000007 0.0
0.0 0.1999999999999993 0.0
[...]
POINT_DATA 804
VECTORS displacement double
0.0 0.0 0.0
0.0 0.0 0.0
0.0 -0.0017897069269143314 0.0
0.0 -0.001789706926914309 0.0
0.0 0.0 0.0
0.0 0.0 0.0
0.0 -0.0017897069269143407 0.0
0.0 -0.0017897069269143036 0.0
0.0 -2.2524837750709893e-116 0.0
0.0 5.77804476476781e-116 0.0
0.0 6.798970660163306e-116 0.0
0.0 -2.3593390615429945e-114 0.0
0.0 2.3111642485542035e-113 0.0
0.0 -1.786904664469919e-112 0.0
0.0 1.2444360205697394e-111 0.0
0.0 -8.167156572716137e-111 0.0
0.0 5.1582161994810386e-110 0.0
0.0 -3.171271655468959e-109 0.0
0.0 1.9111363957919508e-108 0.0
0.0 -1.1340864367176072e-107 0.0
0.0 6.647486910719906e-107 0.0
0.0 -3.8574988489694e-106 0.0
0.0 2.2198433868263355e-105 0.0
0.0 -1.268437345934436e-104 0.0
0.0 7.204252317843057e-104 0.0
0.0 -4.0704210998156535e-103 0.0
0.0 2.2893612757112498e-102 0.0
0.0 -1.2825082687107894e-101 0.0
0.0 7.159559624605598e-101 0.0
0.0 -3.984492951788312e-100 0.0
0.0 2.211449733696209e-99 0.0
0.0 -1.2244331925082422e-98 0.0
0.0 6.764981109486802e-98 0.0
0.0 -3.730571971915529e-97 0.0
0.0 2.053765948342837e-96 0.0
0.0 -1.1289342362224987e-95 0.0
0.0 6.197128493430474e-95 0.0
0.0 -3.3975456915139154e-94 0.0
0.0 1.8604967527033946e-93 0.0
0.0 -1.0176645441928026e-92 0.0
0.0 5.560371418553783e-92 0.0
0.0 -3.0347747549934507e-91 0.0
0.0 1.6544834431287834e-90 0.0
0.0 -9.00932796960722e-90 0.0
0.0 4.8999238819668646e-89 0.0
0.0 -2.661459721121085e-88 0.0
0.0 1.443596982432019e-87 0.0
0.0 -7.818548048448943e-87 0.0
0.0 4.227824885495926e-86 0.0
0.0 -2.2823097029198717e-85 0.0
0.0 1.2298582770765336e-84 0.0
0.0 -6.614778243791896e-84 0.0
0.0 3.5506824255159564e-83 0.0
0.0 -1.9019400462808924e-82 0.0
0.0 1.0164916127730185e-81 0.0
0.0 -5.418807516734924e-81 0.0
0.0 2.879193880329896e-80 0.0
0.0 -1.5215165547898184e-79 0.0
0.0 7.945990632109732e-79 0.0
0.0 -4.0206128621696886e-78 0.0
0.0 1.841992345754108e-77 0.0
0.0 -5.422423785461508e-77 0.0
0.0 -3.613627524847488e-76 0.0
0.0 1.1519625471827232e-74 0.0
0.0 -2.013086044756871e-73 0.0
0.0 3.0819337514599614e-72 0.0
0.0 -4.476408813694469e-71 0.0
0.0 6.306285233420695e-70 0.0
0.0 -8.673481538865432e-69 0.0
0.0 1.166365240110758e-67 0.0
0.0 -1.53302294628946e-66 0.0
0.0 1.9672163863840564e-65 0.0
0.0 -2.4607699396120472e-64 0.0
0.0 2.994830877994482e-63 0.0
0.0 -3.5379089560193146e-62 0.0
0.0 4.0453828232407934e-61 0.0
0.0 -4.461371835538819e-60 0.0
0.0 4.723731228483195e-59 0.0
0.0 -4.772476015891956e-58 0.0
0.0 4.5611366536588306e-57 0.0
0.0 -4.0694691751214507e-56 0.0
0.0 3.314808390386298e-55 0.0
0.0 -2.3585453848291824e-54 0.0
0.0 1.3042009027082038e-53 0.0
0.0 -2.8476391323576745e-53 0.0
0.0 -5.605010835237407e-52 0.0
0.0 1.116073113318384e-50 0.0
0.0 -1.3198168442397298e-49 0.0
0.0 1.182977906743836e-48 0.0
0.0 -7.920590763216734e-48 0.0
0.0 2.8850101399066945e-47 0.0
0.0 1.7056755148429308e-46 0.0
0.0 -4.5927717284038953e-45 0.0
0.0 5.213035092305859e-44 0.0
0.0 -3.840731930230028e-43 0.0
0.0 1.4160658557210994e-42 0.0
0.0 8.829356908623064e-42 0.0
0.0 -2.145608016968318e-40 0.0
0.0 2.0826525735384012e-39 0.0
0.0 -1.0646221364841051e-38 0.0
0.0 -1.6187624550591504e-38 0.0
0.0 9.15106805437556e-37 0.0
0.0 -9.261350565367649e-36 0.0
0.0 4.0557084803590826e-35 0.0
0.0 1.8023209619087544e-34 0.0
0.0 -4.500694230195406e-33 0.0
0.0 3.3061351503165944e-32 0.0
0.0 -2.9558214418582017e-32 0.0
0.0 -1.807226782028646e-30 0.0
0.0 1.776559457665904e-29 0.0
0.0 -3.912245563266634e-29 0.0
0.0 -7.579141862370227e-28 0.0
0.0 8.11267157436026e-27 0.0
0.0 -1.419478709047495e-26 0.0
0.0 -3.713251712111676e-25 0.0
0.0 3.173206524345459e-24 0.0
0.0 1.8709787000679845e-24 0.0
0.0 -1.8423829024282437e-22 0.0
0.0 8.271889292507418e-22 0.0
0.0 5.949818444255332e-21 0.0
0.0 -6.71781104361427e-20 0.0
0.0 -5.951343701389326e-20 0.0
0.0 3.518151158503444e-18 0.0
0.0 -6.2457810213379136e-18 0.0
0.0 -1.5366232883281508e-16 0.0
0.0 5.248541884303022e-16 0.0
0.0 6.39161916010868e-15 0.0
0.0 -2.570525031000902e-14 0.0
0.0 -2.7518353911836147e-13 0.0
0.0 8.561455650279587e-13 0.0
0.0 1.2102518040767191e-11 0.0
0.0 -9.219947758263032e-12 0.0
0.0 -4.717224066778442e-10 0.0
0.0 -1.2024962269016038e-09 0.0
0.0 1.1335765803921678e-08 0.0
0.0 9.112756818048668e-08 0.0
0.0 1.342766293516126e-07 0.0
0.0 -1.8425834100238458e-06 0.0
0.0 -1.615376869401801e-05 0.0
0.0 -7.47742705528159e-05 0.0
0.0 -0.00024109545217931735 0.0
0.0 -0.0005840733956700144 0.0
0.0 -0.0010946793929228536 0.0
0.0 -0.00160959175950022 0.0
0.0 -0.0018895071175209393 0.0
0.0 -0.0018634299396928238 0.0
0.0 -0.0017405458302502412 0.0
0.0 -0.0017451426212084357 0.0
0.0 -0.0018215864404832025 0.0
0.0 -0.001808740843841331 0.0
0.0 -0.001759714113883305 0.0
0.0 -0.0017862307942846643 0.0
0.0 -0.0018099403515187125 0.0
0.0 -0.0017771369387604486 0.0
0.0 -0.0017797789588094935 0.0
0.0 -0.0018034074985841058 0.0
0.0 -0.0017827559417682955 0.0
0.0 -0.0017814766933390036 0.0
0.0 -0.001799399153413914 0.0
0.0 -0.0017828989597878416 0.0
0.0 -0.0017851473495491459 0.0
0.0 -0.0017964857219014794 0.0
0.0 -0.0017816785195015736 0.0
0.0 -0.0017896177982999935 0.0
0.0 -0.001792500939205599 0.0
0.0 -0.0017820051965988716 0.0
0.0 -0.0017932853120117007 0.0
0.0 -0.0017871840142543276 0.0
0.0 -0.001785781078116423 0.0
0.0 -0.0017931280770647538 0.0
0.0 -0.001783701959975933 0.0
0.0 -0.0017911662163304738 0.0
0.0 -0.0017882644646051553 0.0
0.0 -0.0017860739619788007 0.0
0.0 -0.0017920940701087172 0.0
0.0 -0.001784495707865966 0.0
0.0 -0.0017913298927484768 0.0
0.0 -0.001787012053453645 0.0
0.0 -0.0017879836864543991 0.0
0.0 -0.0017902654657291019 0.0
0.0 -0.0017855192329220958 0.0
0.0 -0.0017915697885508037 0.0
0.0 -0.0017854305602673002 0.0
0.0 -0.0017906264194406305 0.0
0.0 -0.0017870854718601056 0.0
0.0 -0.0017886209345067043 0.0
0.0 -0.0017891128168645231 0.0
0.0 -0.0017868250220333063 0.0
0.0 -0.0017905156240772863 0.0
0.0 -0.001785889295742531 0.0
0.0 -0.0017909819755050024 0.0
0.0 -0.00178584403006409 0.0
0.0 -0.0017906840366776946 0.0
0.0 -0.0017863955089866624 0.0
0.0 -0.0017899672407167759 0.0
0.0 -0.0017871993836888875 0.0
0.0 -0.0017891400915179124 0.0
0.0 -0.001788001768588823 0.0
0.0 -0.0017883955567160239 0.0
0.0 -0.00178866826763261 0.0
0.0 -0.0017878170060910497 0.0
0.0 -0.0017891565284679624 0.0
0.0 -0.0017874163011450182 0.0
0.0 -0.0017894753649235348 0.0
0.0 -0.001787172401725618 0.0
0.0 -0.0017896512044491871 0.0
0.0 -0.0017870587425226482 0.0
0.0 -0.0017870587425226432 0.0
0.0 -0.0017896512044491778 0.0
0.0 -0.0017871724017256233 0.0
0.0 -0.001789475364923531 0.0
0.0 -0.001787416301145034 0.0
0.0 -0.0017891565284679414 0.0
0.0 -0.0017878170060910766 0.0
0.0 -0.001788668267632586 0.0
0.0 -0.0017883955567160432 0.0
0.0 -0.0017880017685887979 0.0
0.0 -0.0017891400915179302 0.0
0.0 -0.0017871993836888745 0.0
0.0 -0.0017899672407168043 0.0
0.0 -0.0017863955089866316 0.0
0.0 -0.0017906840366777117 0.0
0.0 -0.0017858440300640992 0.0
0.0 -0.0017909819755049844 0.0
0.0 -0.0017858892957425573 0.0
0.0 -0.0017905156240772336 0.0
0.0 -0.0017868250220333796 0.0
0.0 -0.001789112816864439 0.0
0.0 -0.0017886209345068054 0.0
0.0 -0.0017870854718600203 0.0
0.0 -0.0017906264194406869 0.0
0.0 -0.001785430560267274 0.0
0.0 -0.0017915697885507896 0.0
0.0 -0.0017855192329221737 0.0
0.0 -0.0017902654657289546 0.0
0.0 -0.0017879836864545917 0.0
0.0 -0.0017870120534534551 0.0
0.0 -0.0017913298927485955 0.0
0.0 -0.0017844957078659363 0.0
0.0 -0.0017920940701085888 0.0
0.0 -0.0017860739619790739 0.0
0.0 -0.0017882644646048222 0.0
0.0 -0.0017911662163307917 0.0
0.0 -0.0017837019599758195 0.0
0.0 -0.001793128077064598 0.0
0.0 -0.0017857810781168608 0.0
0.0 -0.0017871840142537642 0.0
0.0 -0.001793285312012056 0.0
0.0 -0.0017820051965989668 0.0
0.0 -0.001792500939204984 0.0
0.0 -0.0017896177983008162 0.0
0.0 -0.0017816785195010913 0.0
0.0 -0.0017964857219011378 0.0
0.0 -0.001785147349550216 0.0
0.0 -0.0017828989597867813 0.0
0.0 -0.0017993991534139293 0.0
0.0 -0.0017814766933403608 0.0
0.0 -0.001782755941766651 0.0
0.0 -0.0018034074985841734 0.0
0.0 -0.0017797789588115882 0.0
0.0 -0.0017771369387582874 0.0
0.0 -0.0018099403515177573 0.0
0.0 -0.001786230794288409 0.0
0.0 -0.0017597141138820506 0.0
0.0 -0.0018087408438365801 0.0
0.0 -0.0018215864404871418 0.0
0.0 -0.0017451426212147106 0.0
0.0 -0.0017405458302432477 0.0
0.0 -0.0018634299396813859 0.0
0.0 -0.0018895071175317195 0.0
0.0 -0.0016095917595419697 0.0
0.0 -0.0010946793929772854 0.0
0.0 -0.0005840733957141917 0.0
0.0 -0.000241095452204467 0.0
0.0 -7.477427056316408e-05 0.0
0.0 -1.615376869701596e-05 0.0
0.0 -1.8425834105642448e-06 0.0
0.0 1.342766293265899e-07 0.0
0.0 9.112756819574312e-08 0.0
0.0 1.1335765807736236e-08 0.0
0.0 -1.2024962268309727e-09 0.0
0.0 -4.717224067927643e-10 0.0
0.0 -9.219947771860571e-12 0.0
0.0 1.2102518043123468e-11 0.0
0.0 8.561455655434663e-13 0.0
0.0 -2.75183539163559e-13 0.0
0.0 -2.570525032442809e-14 0.0
0.0 6.391619161190483e-15 0.0
0.0 5.248541887739722e-16 0.0
0.0 -1.53662328866282e-16 0.0
0.0 -6.245781028155382e-18 0.0
0.0 3.518151159566978e-18 0.0
0.0 -5.951343692308312e-20 0.0
0.0 -6.717811046484922e-20 0.0
0.0 5.949818444469427e-21 0.0
0.0 8.271889298214893e-22 0.0
0.0 -1.8423829029836352e-22 0.0
0.0 1.8709786942317524e-24 0.0
0.0 3.1732065260221314e-24 0.0
0.0 -3.7132517128561794e-25 0.0
0.0 -1.419478711299101e-26 0.0
0.0 8.112671578472619e-27 0.0
0.0 -7.579141863573869e-28 0.0
0.0 -3.912245568939112e-29 0.0
0.0 1.7765594586554076e-29 0.0
0.0 -1.8072267824622307e-30 0.0
0.0 -2.955821452257185e-32 0.0
0.0 3.3061351526139034e-32 0.0
0.0 -4.500694232051305e-33 0.0
0.0 1.8023209611357068e-34 0.0
0.0 4.055708484575794e-35 0.0
0.0 -9.261350571116379e-36 0.0
0.0 9.151068057463537e-37 0.0
0.0 -1.6187624514049517e-38 0.0
0.0 -1.0646221376136061e-38 0.0
0.0 2.0826525750276124e-39 0.0
0.0 -2.14560801801741e-40 0.0
0.0 8.829356906439483e-42 0.0
0.0 1.4160658575885372e-42 0.0
0.0 -3.8407319333407574e-43 0.0
0.0 5.213035095449732e-44 0.0
0.0 -4.592771729936035e-45 0.0
0.0 1.7056755133618495e-46 0.0
0.0 2.88501014471595e-47 0.0
0.0 -7.920590769633045e-48 0.0
0.0 1.1829779070460922e-48 0.0
0.0 -1.3198168431551738e-49 0.0
0.0 1.1160731087663538e-50 0.0
0.0 -5.605010713014264e-52 0.0
0.0 -2.8476394179747936e-53 0.0
0.0 1.3042009656467166e-53 0.0
0.0 -2.358545519634416e-54 0.0
0.0 3.3148086745114216e-55 0.0
0.0 -4.0694697673865245e-56 0.0
0.0 4.561137877336569e-57 0.0
0.0 -4.772478524573665e-58 0.0
0.0 4.723736335622485e-59 0.0
0.0 -4.461382166267271e-60 0.0
0.0 4.045403598153144e-61 0.0
0.0 -3.537950509537016e-62 0.0
0.0 2.994913579787309e-63 0.0
0.0 -2.4609337773043886e-64 0.0
0.0 1.967539559953724e-65 0.0
0.0 -1.5336578293868547e-66 0.0
0.0 1.1676077074335189e-67 0.0
0.0 -8.697708227556311e-69 0.0
0.0 6.353360740726539e-70 0.0
0.0 -4.567579024833452e-71 0.0
0.0 3.2579389814354876e-72 0.0
0.0 -2.3518242223235114e-73 0.0
0.0 1.8019643353125345e-74 0.0
0.0 -1.605069617537929e-75 0.0
0.0 1.8308352279406342e-76 0.0
0.0 -2.6737634413858784e-77 0.0
0.0 4.549868775522083e-78 0.0
0.0 -8.278317438222169e-79 0.0
0.0 1.542154598670274e-79 0.0
0.0 -2.8919460416604434e-80 0.0
0.0 5.4267875608881215e-81 0.0
0.0 -1.017023095981827e-81 0.0
0.0 1.9023601627013843e-82 0.0
0.0 -3.551129317560703e-83 0.0
0.0 6.615412630366437e-84 0.0
0.0 -1.229963806126305e-84 0.0
0.0 2.2824952935073492e-85 0.0
0.0 -4.2281547547183604e-86 0.0
0.0 7.819131412579132e-87 0.0
0.0 -1.4436991178717736e-87 0.0
0.0 2.661636477861195e-88 0.0
0.0 -4.9002261112400594e-89 0.0
0.0 9.009838494500616e-90 0.0
0.0 -1.654568645722372e-90 0.0
0.0 3.0349152794769104e-91 0.0
0.0 -5.560600571352921e-92 0.0
0.0 1.0177015221453586e-92 0.0
0.0 -1.860555884414665e-93 0.0
0.0 3.397639606398003e-94 0.0
0.0 -6.197277143801927e-95 0.0
0.0 1.1289578000751245e-95 0.0
0.0 -2.0538036044884193e-96 0.0
0.0 3.730633124704189e-97 0.0
0.0 -6.76508288719222e-98 0.0
0.0 1.2244506747236895e-98 0.0
0.0 -2.21148083473483e-99 0.0
0.0 3.9845501860883454e-100 0.0
0.0 -7.15966797914216e-101 0.0
0.0 1.2825292042012977e-101 0.0
0.0 -2.289402214423168e-102 0.0
0.0 4.0705015314043635e-103 0.0
0.0 -7.20441018708415e-104 0.0
0.0 1.2684681769633611e-104 0.0
0.0 -2.2199031341419025e-105 0.0
0.0 3.8576135422123526e-106 0.0
0.0 -6.647704778291778e-107 0.0
0.0 1.134127365095383e-107 0.0
0.0 -1.9112124105598837e-108 0.0
0.0 3.1714112115644905e-109 0.0
0.0 -5.1584694494615326e-110 0.0
0.0 8.1676108115489e-111 0.0
0.0 -1.2445165458374254e-111 0.0
0.0 1.7870457403027172e-112 0.0
0.0 -2.3114084642189127e-113 0.0
0.0 2.359756679176441e-114 0.0
0.0 -6.806022264183759e-116 0.0
0.0 -5.776870449185304e-116 0.0
0.0 2.252295659962956e-116 0.0
0.0 9.996081752777142e-117 0.0
0.0 1.1837428993874e-116 0.0
0.0 -4.391353991195012e-115 0.0
0.0 4.316220477912362e-114 0.0
0.0 -3.331870986451538e-113 0.0
0.0 2.313141655261328e-112 0.0
0.0 -1.5123148888233284e-111 0.0
0.0 9.511769492809082e-111 0.0
0.0 -5.822625445811929e-110 0.0
0.0 3.4937666243235666e-109 0.0
0.0 -2.0644645475560664e-108 0.0
0.0 1.2052116520267751e-107 0.0
0.0 -6.967560831514534e-107 0.0
0.0 3.9960068384795307e-106 0.0
0.0 -2.276630643392945e-105 0.0
0.0 1.289878713006958e-104 0.0
0.0 -7.273989128737313e-104 0.0
0.0 4.085748034188515e-103 0.0
0.0 -2.287169903091246e-102 0.0
0.0 1.276619657703472e-101 0.0
0.0 -7.1077546834799e-101 0.0
0.0 3.948676936786651e-100 0.0
0.0 -2.189439081370985e-99 0.0
0.0 1.2119005527124453e-98 0.0
0.0 -6.69768481552401e-98 0.0
0.0 3.6962338665590947e-97 0.0
0.0 -2.0370874347953985e-96 0.0
0.0 1.1212466540423095e-95 0.0
0.0 -6.163806768400003e-95 0.0
0.0 3.384227437442131e-94 0.0
0.0 -1.8558032529743797e-93 0.0
0.0 1.0163884875872591e-92 0.0
0.0 -5.559453870770867e-92 0.0
0.0 3.0369310430700744e-91 0.0
0.0 -1.6567287099146359e-90 0.0
0.0 9.025324352651056e-90 0.0
0.0 -4.909631351385463e-89 0.0
0.0 2.6667844162252205e-88 0.0
0.0 -1.4462951159572132e-87 0.0
0.0 7.831260193988259e-87 0.0
0.0 -4.233372844926719e-86 0.0
0.0 2.2845179741478566e-85 0.0
0.0 -1.2306304265562247e-84 0.0
0.0 6.616933368093065e-84 0.0
0.0 -3.5510247133772275e-83 0.0
0.0 1.901935056842937e-82 0.0
0.0 -1.0166696401814172e-81 0.0
0.0 5.424593727484448e-81 0.0
0.0 -2.8907832727571494e-80 0.0
0.0 1.5416092316826847e-79 0.0
0.0 -8.276048208376143e-79 0.0
0.0 4.549049448966774e-78 0.0
0.0 -2.6735216012067e-77 0.0
0.0 1.8307848054307586e-76 0.0
0.0 -1.6050634920939075e-75 0.0
0.0 1.8019582511817606e-74 0.0
0.0 -2.3518113903859587e-73 0.0
0.0 3.2579226767144e-72 0.0
0.0 -4.567563063323279e-71 0.0
0.0 6.353347249331161e-70 0.0
0.0 -8.697697825846224e-69 0.0
0.0 1.1676069530169048e-67 0.0
0.0 -1.533657304544003e-66 0.0
0.0 1.9675392050234523e-65 0.0
0.0 -2.4609335417308205e-64 0.0
0.0 2.994913425220688e-63 0.0
0.0 -3.5379504087045067e-62 0.0
0.0 4.045403532423612e-61 0.0
0.0 -4.461382123239449e-60 0.0
0.0 4.723736307190576e-59 0.0
0.0 -4.772478505520249e-58 0.0
0.0 4.5611378643604016e-57 0.0
0.0 -4.0694697584413917e-56 0.0
0.0 3.314808668360414e-55 0.0
0.0 -2.3585455155405802e-54 0.0
0.0 1.3042009631572352e-53 0.0
0.0 -2.8476394059375193e-53 0.0
0.0 -5.605010715005686e-52 0.0
0.0 1.1160731082549292e-50 0.0
0.0 -1.3198168422472804e-49 0.0
0.0 1.1829779060526916e-48 0.0
0.0 -7.920590761480026e-48 0.0
0.0 2.8850101400036583e-47 0.0
0.0 1.7056755142540152e-46 0.0
0.0 -4.592771727807788e-45 0.0
0.0 5.213035091839955e-44 0.0
0.0 -3.840731929904017e-43 0.0
0.0 1.4160658555067536e-42 0.0
0.0 8.829356909977048e-42 0.0
0.0 -2.145608017051414e-40 0.0
0.0 2.0826525735883e-39 0.0
0.0 -1.0646221365135588e-38 0.0
0.0 -1.6187624548876153e-38 0.0
0.0 9.151068054276738e-37 0.0
0.0 -9.261350565311024e-36 0.0
0.0 4.055708480327102e-35 0.0
0.0 1.80232096192654e-34 0.0
0.0 -4.500694230205358e-33 0.0
0.0 3.3061351503220387e-32 0.0
0.0 -2.955821441887659e-32 0.0
0.0 -1.8072267820270635e-30 0.0
0.0 1.776559457665109e-29 0.0
0.0 -3.9122455632623574e-29 0.0
0.0 -7.579141862372775e-28 0.0
0.0 8.112671574362158e-27 0.0
0.0 -1.4194787090485093e-26 0.0
0.0 -3.713251712111216e-25 0.0
0.0 3.173206524345212e-24 0.0
0.0 1.8709787000691787e-24 0.0
0.0 -1.842382902428208e-22 0.0
0.0 8.271889292506596e-22 0.0
0.0 5.9498184442563934e-21 0.0
0.0 -6.717811043614835e-20 0.0
0.0 -5.951343701384184e-20 0.0
0.0 3.518151158503339e-18 0.0
0.0 -6.245781021336546e-18 0.0
0.0 -1.536623288328158e-16 0.0
0.0 5.248541884303104e-16 0.0
0.0 6.391619160108301e-15 0.0
0.0 -2.5705250310008637e-14 0.0
0.0 -2.7518353911835566e-13 0.0
0.0 8.561455650278676e-13 0.0
0.0 1.2102518040767546e-11 0.0
0.0 -9.2199477582654e-12 0.0
0.0 -4.717224066778391e-10 0.0
0.0 -1.2024962269016772e-09 0.0
0.0 1.133576580392138e-08 0.0
0.0 9.112756818048693e-08 0.0
0.0 1.3427662935162533e-07 0.0
0.0 -1.842583410024011e-06 0.0
0.0 -1.615376869401834e-05 0.0
0.0 -7.477427055281518e-05 0.0
0.0 -0.00024109545217932055 0.0
0.0 -0.0005840733956700098 0.0
0.0 -0.0010946793929228658 0.0
0.0 -0.0016095917595002171 0.0
0.0 -0.0018895071175209365 0.0
0.0 -0.0018634299396928142 0.0
0.0 -0.0017405458302502405 0.0
0.0 -0.00174514262120844 0.0
0.0 -0.0018215864404832003 0.0
0.0 -0.0018087408438413291 0.0
0.0 -0.0017597141138833042 0.0
0.0 -0.001786230794284659 0.0
0.0 -0.0018099403515186969 0.0
0.0 -0.0017771369387604517 0.0
0.0 -0.0017797789588094956 0.0
0.0 -0.001803407498584099 0.0
0.0 -0.0017827559417682812 0.0
0.0 -0.0017814766933390083 0.0
0.0 -0.001799399153413906 0.0
0.0 -0.0017828989597878377 0.0
0.0 -0.00178514734954916 0.0
0.0 -0.001796485721901463 0.0
0.0 -0.001781678519501569 0.0
0.0 -0.0017896177982999926 0.0
0.0 -0.0017925009392055788 0.0
0.0 -0.0017820051965988697 0.0
0.0 -0.0017932853120117092 0.0
0.0 -0.0017871840142543126 0.0
0.0 -0.0017857810781164189 0.0
0.0 -0.0017931280770647694 0.0
0.0 -0.0017837019599759325 0.0
0.0 -0.0017911662163304861 0.0
0.0 -0.0017882644646051707 0.0
0.0 -0.0017860739619788143 0.0
0.0 -0.0017920940701087154 0.0
0.0 -0.0017844957078659717 0.0
0.0 -0.0017913298927484536 0.0
0.0 -0.0017870120534536453 0.0
0.0 -0.0017879836864544028 0.0
0.0 -0.0017902654657291064 0.0
0.0 -0.0017855192329220891 0.0
0.0 -0.001791569788550811 0.0
0.0 -0.0017854305602673034 0.0
0.0 -0.0017906264194406277 0.0
0.0 -0.0017870854718601095 0.0
0.0 -0.0017886209345066902 0.0
0.0 -0.0017891128168645292 0.0
0.0 -0.0017868250220333037 0.0
0.0 -0.0017905156240772947 0.0
0.0 -0.001785889295742523 0.0
0.0 -0.0017909819755050076 0.0
0.0 -0.0017858440300640888 0.0
0.0 -0.0017906840366776968 0.0
0.0 -0.0017863955089866689 0.0
0.0 -0.0017899672407167768 0.0
0.0 -0.0017871993836889016 0.0
0.0 -0.0017891400915178964 0.0
0.0 -0.001788001768588815 0.0
0.0 -0.001788395556716027 0.0
0.0 -0.001788668267632613 0.0
0.0 -0.001787817006091053 0.0
0.0 -0.0017891565284679526 0.0
0.0 -0.0017874163011450132 0.0
0.0 -0.0017894753649235278 0.0
0.0 -0.0017871724017256144 0.0
0.0 -0.0017896512044491939 0.0
0.0 -0.0017870587425226382 0.0
0.0 -0.001787058742522643 0.0
0.0 -0.0017896512044491715 0.0
0.0 -0.001787172401725631 0.0
0.0 -0.0017894753649235272 0.0
0.0 -0.0017874163011450358 0.0
0.0 -0.001789156528467945 0.0
0.0 -0.0017878170060910716 0.0
0.0 -0.0017886682676325919 0.0
0.0 -0.0017883955567160373 0.0
0.0 -0.0017880017685887905 0.0
0.0 -0.0017891400915179372 0.0
0.0 -0.001787199383688852 0.0
0.0 -0.0017899672407168078 0.0
0.0 -0.001786395508986637 0.0
0.0 -0.0017906840366777106 0.0
0.0 -0.0017858440300640957 0.0
0.0 -0.0017909819755049905 0.0
0.0 -0.0017858892957425638 0.0
0.0 -0.0017905156240772266 0.0
0.0 -0.0017868250220333857 0.0
0.0 -0.0017891128168644349 0.0
0.0 -0.001788620934506798 0.0
0.0 -0.0017870854718600151 0.0
0.0 -0.001790626419440687 0.0
0.0 -0.0017854305602672648 0.0
0.0 -0.0017915697885507898 0.0
0.0 -0.0017855192329221795 0.0
0.0 -0.0017902654657289616 0.0
0.0 -0.0017879836864545852 0.0
0.0 -0.0017870120534534456 0.0
0.0 -0.0017913298927486124 0.0
0.0 -0.0017844957078659294 0.0
0.0 -0.001792094070108599 0.0
0.0 -0.0017860739619790715 0.0
0.0 -0.0017882644646048085 0.0
0.0 -0.001791166216330773 0.0
0.0 -0.0017837019599758256 0.0
0.0 -0.0017931280770645936 0.0
0.0 -0.0017857810781168586 0.0
0.0 -0.0017871840142537848 0.0
0.0 -0.0017932853120120416 0.0
0.0 -0.0017820051965989697 0.0