# vtk DataFile Version 2.0
data_77
ASCII
DATASET UNSTRUCTURED_GRID
POINTS 804 float
0.0 0.0 0.0
0.1 0.0 0.0
0.1 20.0 0.0
0.0 20.0 0.0
0.0 0.0 -0.1
0.1 0.0 -0.1
0.1 20.0 -0.1
0.0 20.0 -0.1
0.1 0.09999999999992462 0.0
0.1 0.1999999999998517 0.0
0.1 0.2999999999997818 0.0
0.1 0.399999999999712 0.0
0.1 0.4999999999996377 0.0
0.1 0.5999999999995541 0.0
0.1 0.6999999999994495 0.0
0.1 0.7999999999993355 0.0
0.1 0.8999999999992101 0.0
0.1 0.999999999999102 0.0
0.1 1.099999999999006 0.0
0.1 1.199999999998936 0.0
0.1 1.299999999998867 0.0
0.1 1.399999999998797 0.0
0.1 1.499999999998727 0.0
0.1 1.599999999998657 0.0
0.1 1.699999999998587 0.0
0.1 1.799999999998517 0.0
0.1 1.899999999998447 0.0
0.1 1.999999999998378 0.0
0.1 2.099999999998308 0.0
0.1 2.199999999998238 0.0
0.1 2.299999999998168 0.0
0.1 2.399999999998067 0.0
0.1 2.499999999997942 0.0
0.1 2.599999999997706 0.0
0.1 2.699999999997444 0.0
0.1 2.799999999997153 0.0
0.1 2.899999999996861 0.0
0.1 2.999999999996569 0.0
0.1 3.099999999996277 0.0
0.1 3.199999999995984 0.0
0.1 3.299999999995693 0.0
0.1 3.399999999995401 0.0
0.1 3.499999999995108 0.0
0.1 3.599999999994816 0.0
0.1 3.699999999994525 0.0
0.1 3.799999999994232 0.0
0.1 3.89999999999394 0.0
0.1 3.999999999993648 0.0
0.1 4.099999999993356 0.0
0.1 4.199999999993064 0.0
0.1 4.299999999992772 0.0
0.1 4.399999999992479 0.0
0.1 4.499999999992188 0.0
0.1 4.599999999991895 0.0
0.1 4.699999999991603 0.0
0.1 4.799999999991311 0.0
0.1 4.899999999991019 0.0
0.1 4.999999999990727 0.0
0.1 5.099999999990436 0.0
0.1 5.199999999990144 0.0
0.1 5.299999999989851 0.0
0.1 5.399999999989559 0.0
0.1 5.499999999989267 0.0
0.1 5.599999999988975 0.0
0.1 5.699999999988683 0.0
0.1 5.799999999988391 0.0
0.1 5.899999999988099 0.0
0.1 5.999999999987806 0.0
0.1 6.099999999987515 0.0
0.1 6.199999999987222 0.0
0.1 6.299999999986929 0.0
0.1 6.399999999986638 0.0
0.1 6.499999999986345 0.0
0.1 6.599999999986054 0.0
0.1 6.699999999985762 0.0
0.1 6.79999999998547 0.0
0.1 6.899999999985177 0.0
0.1 6.999999999984885 0.0
0.1 7.099999999984593 0.0
0.1 7.199999999984302 0.0
0.1 7.299999999984009 0.0
0.1 7.399999999983717 0.0
0.1 7.499999999983426 0.0
0.1 7.599999999983132 0.0
0.1 7.699999999982841 0.0
0.1 7.799999999982549 0.0
0.1 7.899999999982256 0.0
0.1 7.999999999982034 0.0
0.1 8.099999999981964 0.0
0.1 8.199999999982062 0.0
0.1 8.299999999982214 0.0
0.1 8.399999999982366 0.0
0.1 8.499999999982517 0.0
0.1 8.59999999998267 0.0
0.1 8.699999999982822 0.0
0.1 8.799999999982973 0.0
0.1 8.899999999983125 0.0
0.1 8.999999999983277 0.0
0.1 9.09999999998343 0.0
0.1 9.19999999998358 0.0
0.1 9.299999999983733 0.0
0.1 9.399999999983885 0.0
0.1 9.499999999984038 0.0
0.1 9.599999999984188 0.0
0.1 9.69999999998434 0.0
0.1 9.799999999984493 0.0
0.1 9.899999999984646 0.0
0.1 9.999999999984798 0.0
0.1 10.09999999998495 0.0
0.1 10.1999999999851 0.0
0.1 10.29999999998525 0.0
0.1 10.39999999998541 0.0
0.1 10.49999999998556 0.0
0.1 10.59999999998571 0.0
0.1 10.69999999998586 0.0
0.1 10.79999999998601 0.0
0.1 10.89999999998616 0.0
0.1 10.99999999998632 0.0
0.1 11.09999999998647 0.0
0.1 11.19999999998662 0.0
0.1 11.29999999998677 0.0
0.1 11.39999999998693 0.0
0.1 11.49999999998708 0.0
0.1 11.59999999998723 0.0
0.1 11.69999999998738 0.0
0.1 11.79999999998754 0.0
0.1 11.89999999998769 0.0
0.1 11.99999999998784 0.0
0.1 12.09999999998799 0.0
0.1 12.19999999998814 0.0
0.1 12.2999999999883 0.0
0.1 12.39999999998845 0.0
0.1 12.4999999999886 0.0
0.1 12.59999999998875 0.0
0.1 12.6999999999889 0.0
0.1 12.79999999998905 0.0
0.1 12.89999999998921 0.0
0.1 12.99999999998936 0.0
0.1 13.09999999998951 0.0
0.1 13.19999999998966 0.0
0.1 13.29999999998982 0.0
0.1 13.39999999998997 0.0
0.1 13.49999999999012 0.0
0.1 13.59999999999027 0.0
0.1 13.69999999999042 0.0
0.1 13.79999999999057 0.0
0.1 13.89999999999073 0.0
0.1 13.99999999999088 0.0
0.1 14.09999999999103 0.0
0.1 14.19999999999118 0.0
0.1 14.29999999999134 0.0
0.1 14.39999999999149 0.0
0.1 14.49999999999164 0.0
0.1 14.59999999999179 0.0
0.1 14.69999999999194 0.0
0.1 14.7999999999921 0.0
0.1 14.89999999999225 0.0
0.1 14.9999999999924 0.0
0.1 15.09999999999255 0.0
0.1 15.1999999999927 0.0
0.1 15.29999999999285 0.0
0.1 15.39999999999301 0.0
0.1 15.49999999999316 0.0
0.1 15.59999999999331 0.0
0.1 15.69999999999346 0.0
0.1 15.79999999999362 0.0
0.1 15.89999999999377 0.0
0.1 15.99999999999392 0.0
0.1 16.09999999999407 0.0
0.1 16.19999999999422 0.0
0.1 16.29999999999437 0.0
0.1 16.39999999999453 0.0
0.1 16.49999999999468 0.0
0.1 16.59999999999483 0.0
0.1 16.69999999999498 0.0
0.1 16.79999999999514 0.0
0.1 16.89999999999528 0.0
0.1 16.99999999999544 0.0
0.1 17.09999999999559 0.0
0.1 17.19999999999574 0.0
0.1 17.29999999999589 0.0
0.1 17.39999999999605 0.0
0.1 17.4999999999962 0.0
0.1 17.59999999999635 0.0
0.1 17.6999999999965 0.0
0.1 17.79999999999665 0.0
0.1 17.89999999999681 0.0
0.1 17.99999999999696 0.0
0.1 18.09999999999711 0.0
0.1 18.19999999999726 0.0
0.1 18.29999999999742 0.0
0.1 18.39999999999757 0.0
0.1 18.49999999999772 0.0
0.1 18.59999999999787 0.0
0.1 18.69999999999802 0.0
0.1 18.79999999999818 0.0
0.1 18.89999999999833 0.0
0.1 18.99999999999848 0.0
0.1 19.09999999999863 0.0
0.1 19.19999999999878 0.0
0.1 19.29999999999894 0.0
0.1 19.39999999999909 0.0
0.1 19.49999999999924 0.0
0.1 19.59999999999939 0.0
0.1 19.69999999999955 0.0
0.1 19.7999999999997 0.0
0.1 19.89999999999985 0.0
0.0 19.9 0.0
0.0 19.8 0.0
0.0 19.7 0.0
0.0 19.6 0.0
0.0 19.5 0.0
0.0 19.4 0.0
0.0 19.3 0.0
0.0 19.2 0.0
0.0 19.1 0.0
0.0 19.0 0.0
0.0 18.9 0.0
0.0 18.8 0.0
0.0 18.7 0.0
0.0 18.6 0.0
0.0 18.5 0.0
0.0 18.4 0.0
0.0 18.3 0.0
0.0 18.2 0.0
0.0 18.1 0.0
0.0 18.0 0.0
0.0 17.9 0.0
0.0 17.8 0.0
0.0 17.7 0.0
0.0 17.6 0.0
0.0 17.5 0.0
0.0 17.4 0.0
0.0 17.3 0.0
0.0 17.2 0.0
0.0 17.09999999999999 0.0
0.0 17.0 0.0
0.0 16.9 0.0
0.0 16.8 0.0
0.0 16.7 0.0
0.0 16.59999999999999 0.0
0.0 16.49999999999999 0.0
0.0 16.4 0.0
0.0 16.29999999999999 0.0
0.0 16.2 0.0
0.0 16.09999999999999 0.0
0.0 15.99999999999999 0.0
0.0 15.89999999999999 0.0
0.0 15.79999999999999 0.0
0.0 15.69999999999999 0.0
0.0 15.59999999999999 0.0
0.0 15.49999999999999 0.0
0.0 15.39999999999999 0.0
0.0 15.29999999999999 0.0
0.0 15.19999999999999 0.0
0.0 15.09999999999999 0.0
0.0 14.99999999999999 0.0
0.0 14.89999999999999 0.0
0.0 14.79999999999999 0.0
0.0 14.69999999999999 0.0
0.0 14.59999999999999 0.0
0.0 14.49999999999999 0.0
0.0 14.39999999999999 0.0
0.0 14.29999999999999 0.0
0.0 14.19999999999999 0.0
0.0 14.09999999999999 0.0
0.0 13.99999999999999 0.0
0.0 13.89999999999999 0.0
0.0 13.79999999999999 0.0
0.0 13.69999999999999 0.0
0.0 13.59999999999999 0.0
0.0 13.49999999999999 0.0
0.0 13.39999999999999 0.0
0.0 13.29999999999999 0.0
0.0 13.19999999999999 0.0
0.0 13.09999999999999 0.0
0.0 12.99999999999999 0.0
0.0 12.89999999999999 0.0
0.0 12.79999999999999 0.0
0.0 12.69999999999999 0.0
0.0 12.59999999999999 0.0
0.0 12.49999999999999 0.0
0.0 12.39999999999999 0.0
0.0 12.29999999999999 0.0
0.0 12.19999999999999 0.0
0.0 12.09999999999999 0.0
0.0 11.99999999999999 0.0
0.0 11.89999999999999 0.0
0.0 11.79999999999999 0.0
0.0 11.69999999999999 0.0
0.0 11.59999999999999 0.0
0.0 11.49999999999999 0.0
0.0 11.39999999999999 0.0
0.0 11.29999999999999 0.0
0.0 11.19999999999999 0.0
0.0 11.09999999999999 0.0
0.0 10.99999999999999 0.0
0.0 10.89999999999999 0.0
0.0 10.79999999999999 0.0
0.0 10.69999999999999 0.0
0.0 10.59999999999999 0.0
0.0 10.49999999999999 0.0
0.0 10.39999999999999 0.0
0.0 10.29999999999999 0.0
0.0 10.19999999999999 0.0
0.0 10.09999999999999 0.0
0.0 9.999999999999993 0.0
0.0 9.899999999999993 0.0
0.0 9.799999999999994 0.0
0.0 9.699999999999992 0.0
0.0 9.599999999999993 0.0
0.0 9.499999999999993 0.0
0.0 9.399999999999993 0.0
0.0 9.299999999999995 0.0
0.0 9.199999999999996 0.0
0.0 9.099999999999994 0.0
0.0 8.999999999999995 0.0
0.0 8.899999999999995 0.0
0.0 8.799999999999994 0.0
0.0 8.699999999999994 0.0
0.0 8.599999999999994 0.0
0.0 8.499999999999995 0.0
0.0 8.399999999999995 0.0
0.0 8.299999999999994 0.0
0.0 8.199999999999994 0.0
0.0 8.099999999999994 0.0
0.0 7.999999999999993 0.0
0.0 7.899999999999995 0.0
0.0 7.799999999999995 0.0
0.0 7.699999999999996 0.0
0.0 7.599999999999996 0.0
0.0 7.499999999999996 0.0
0.0 7.399999999999995 0.0
0.0 7.299999999999995 0.0
0.0 7.199999999999996 0.0
0.0 7.099999999999994 0.0
0.0 6.999999999999995 0.0
0.0 6.899999999999995 0.0
0.0 6.799999999999995 0.0
0.0 6.699999999999996 0.0
0.0 6.599999999999994 0.0
0.0 6.499999999999995 0.0
0.0 6.399999999999997 0.0
0.0 6.299999999999997 0.0
0.0 6.199999999999996 0.0
0.0 6.099999999999996 0.0
0.0 5.999999999999996 0.0
0.0 5.899999999999997 0.0
0.0 5.799999999999997 0.0
0.0 5.699999999999996 0.0
0.0 5.599999999999996 0.0
0.0 5.499999999999996 0.0
0.0 5.399999999999995 0.0
0.0 5.299999999999995 0.0
0.0 5.199999999999996 0.0
0.0 5.099999999999996 0.0
0.0 4.999999999999998 0.0
0.0 4.899999999999999 0.0
0.0 4.799999999999997 0.0
0.0 4.699999999999998 0.0
0.0 4.599999999999998 0.0
0.0 4.499999999999996 0.0
0.0 4.399999999999997 0.0
0.0 4.299999999999997 0.0
0.0 4.199999999999998 0.0
0.0 4.099999999999998 0.0
0.0 3.999999999999996 0.0
0.0 3.899999999999999 0.0
0.0 3.799999999999997 0.0
0.0 3.699999999999996 0.0
0.0 3.599999999999998 0.0
0.0 3.5 0.0
0.0 3.399999999999999 0.0
0.0 3.299999999999997 0.0
0.0 3.199999999999999 0.0
0.0 3.099999999999998 0.0
0.0 3.0 0.0
0.0 2.899999999999999 0.0
0.0 2.799999999999997 0.0
0.0 2.699999999999999 0.0
0.0 2.599999999999998 0.0
0.0 2.499999999999996 0.0
0.0 2.399999999999999 0.0
0.0 2.299999999999997 0.0
0.0 2.199999999999999 0.0
0.0 2.100000000000001 0.0
0.0 2.0 0.0
0.0 1.899999999999999 0.0
0.0 1.800000000000001 0.0
0.0 1.699999999999999 0.0
0.0 1.599999999999998 0.0
0.0 1.5 0.0
0.0 1.399999999999999 0.0
0.0 1.299999999999997 0.0
0.0 1.199999999999999 0.0
0.0 1.099999999999998 0.0
0.0 1.0 0.0
0.0 0.8999999999999986 0.0
0.0 0.8000000000000007 0.0
0.0 0.6999999999999993 0.0
0.0 0.6000000000000014 0.0
0.0 0.5 0.0
0.0 0.3999999999999986 0.0
0.0 0.3000000000000007 0.0
0.0 0.1999999999999993 0.0
[...]
POINT_DATA 804
VECTORS displacement double
0.0 0.0 0.0
0.0 0.0 0.0
0.0 -0.0017859873831801885 0.0
0.0 -0.001785987383180215 0.0
0.0 0.0 0.0
0.0 0.0 0.0
0.0 -0.0017859873831801928 0.0
0.0 -0.0017859873831801978 0.0
0.0 1.3400042278830707e-122 0.0
0.0 -7.714537520590996e-122 0.0
0.0 4.291825416365744e-121 0.0
0.0 -2.3761199521769916e-120 0.0
0.0 1.3104683244815018e-119 0.0
0.0 -7.200689292393657e-119 0.0
0.0 3.94238442885729e-118 0.0
0.0 -2.1509494241493744e-117 0.0
0.0 1.1695994003590411e-116 0.0
0.0 -6.339117904961868e-116 0.0
0.0 3.4249430208167693e-115 0.0
0.0 -1.844833728447121e-114 0.0
0.0 9.90797461490418e-114 0.0
0.0 -5.306131623555772e-113 0.0
0.0 2.833837510334836e-112 0.0
0.0 -1.5094189980154648e-111 0.0
0.0 8.018842923265273e-111 0.0
0.0 -4.249165106032795e-110 0.0
0.0 2.2459556720519887e-109 0.0
0.0 -1.1841628077694427e-108 0.0
0.0 6.227748656076226e-108 0.0
0.0 -3.2669686694037225e-107 0.0
0.0 1.7093226175335684e-106 0.0
0.0 -8.919145638781633e-106 0.0
0.0 4.640655040008245e-105 0.0
0.0 -2.4071763675496612e-104 0.0
0.0 1.244517751332341e-103 0.0
0.0 -6.410968130141351e-103 0.0
0.0 3.289342073606785e-102 0.0
0.0 -1.6801758288763206e-101 0.0
0.0 8.539166702448611e-101 0.0
0.0 -4.315141588666008e-100 0.0
0.0 2.1663788114824857e-99 0.0
0.0 -1.079431851730139e-98 0.0
0.0 5.331332124906533e-98 0.0
0.0 -2.605998849131701e-97 0.0
0.0 1.2581498496647844e-96 0.0
0.0 -5.983337807334672e-96 0.0
0.0 2.792522963755496e-95 0.0
0.0 -1.2722001069327787e-94 0.0
0.0 5.610570543686877e-94 0.0
0.0 -2.3619197033011876e-93 0.0
0.0 9.241086207402286e-93 0.0
0.0 -3.157525004665557e-92 0.0
0.0 7.577661000207749e-92 0.0
0.0 7.573688302185303e-92 0.0
0.0 -2.866167016300353e-90 0.0
0.0 2.7796169417453098e-89 0.0
0.0 -2.1118389236566374e-88 0.0
0.0 1.4399261815175473e-87 0.0
0.0 -9.228176048037822e-87 0.0
0.0 5.6801511489002636e-86 0.0
0.0 -3.3984218140536167e-85 0.0
0.0 1.991216113669544e-84 0.0
0.0 -1.1484128084418815e-83 0.0
0.0 6.543813175834886e-83 0.0
0.0 -3.694506660347917e-82 0.0
0.0 2.0713862211208272e-81 0.0
0.0 -1.1554362027108437e-80 0.0
0.0 6.421919833723572e-80 0.0
0.0 -3.56077672179967e-79 0.0
0.0 1.9714963994358664e-78 0.0
0.0 -1.0907212288267965e-77 0.0
0.0 6.031988661133791e-77 0.0
0.0 -3.334200117868744e-76 0.0
0.0 1.839927767282356e-75 0.0
0.0 -1.009474784399746e-74 0.0
0.0 5.434046563833638e-74 0.0
0.0 -2.7454378933100337e-73 0.0
0.0 1.078627120373129e-72 0.0
0.0 1.31873642880938e-72 0.0
0.0 -1.2584830716176364e-70 0.0
0.0 2.5938403656448573e-69 0.0
0.0 -4.422180029057434e-68 0.0
0.0 7.068236574966037e-67 0.0
0.0 -1.0932878076290942e-65 0.0
0.0 1.6517891177986398e-64 0.0
0.0 -2.443722944094028e-63 0.0
0.0 3.540782102306685e-62 0.0
0.0 -5.020973924137628e-61 0.0
0.0 6.960390823306871e-60 0.0
0.0 -9.419690666358981e-59 0.0
0.0 1.242486041279312e-57 0.0
0.0 -1.5943097133711115e-56 0.0
0.0 1.9856612201012307e-55 0.0
0.0 -2.3939696104093971e-54 0.0
0.0 2.784697547876707e-53 0.0
0.0 -3.112252921166999e-52 0.0
0.0 3.323912161964571e-51 0.0
0.0 -3.367289885160038e-50 0.0
0.0 3.2010619262144602e-49 0.0
0.0 -2.807427614376899e-48 0.0
0.0 2.203429211184499e-47 0.0
0.0 -1.4472106846469744e-46 0.0
0.0 6.352296403412831e-46 0.0
0.0 1.1208850312706172e-45 0.0
0.0 -6.755650621717961e-44 0.0
0.0 9.68296891431786e-43 0.0
0.0 -9.633637884258225e-42 0.0
0.0 7.073484862941417e-41 0.0
0.0 -3.1129635983861033e-40 0.0
0.0 -8.203742521337167e-40 0.0
0.0 3.4571699080576785e-38 0.0
0.0 -4.132989780577522e-37 0.0
0.0 3.0087646712381955e-36 0.0
0.0 -9.434977142244066e-36 0.0
0.0 -9.441730186396062e-35 0.0
0.0 1.8214168451570242e-33 0.0
0.0 -1.5122377183600443e-32 0.0
0.0 4.928746608362845e-32 0.0
0.0 4.7557243149180475e-31 0.0
0.0 -8.395941626543098e-30 0.0
0.0 5.526610692166134e-29 0.0
0.0 -1.0310686733761053e-30 0.0
0.0 -3.533796284882944e-27 0.0
0.0 3.199350748492009e-26 0.0
0.0 -5.493447731595704e-26 0.0
0.0 -1.5117007925262489e-24 0.0
0.0 1.488465480598882e-23 0.0
0.0 -1.741828555159139e-23 0.0
0.0 -7.481721926314457e-22 0.0
0.0 5.615916141340024e-21 0.0
0.0 1.0013979574549745e-20 0.0
0.0 -3.587213134120333e-19 0.0
0.0 1.1081117420124946e-18 0.0
0.0 1.4317018503358695e-17 0.0
0.0 -1.0601033855599985e-16 0.0
0.0 -4.102066059971879e-16 0.0
0.0 6.066472195525852e-15 0.0
0.0 9.459017250224272e-15 0.0
0.0 -2.869654358535716e-13 0.0
0.0 -3.2477502426061576e-13 0.0
0.0 1.2181054960841734e-11 0.0
0.0 2.617262557418268e-11 0.0
0.0 -4.377033588714163e-10 0.0
0.0 -2.0941990361431127e-09 0.0
0.0 9.079537814145122e-09 0.0
0.0 1.0936420501227569e-07 0.0
0.0 2.348099691091001e-07 0.0
0.0 -2.0385469570294514e-06 0.0
0.0 -2.0192885785809118e-05 0.0
0.0 -9.610995455388306e-05 0.0
0.0 -0.0003082351155224633 0.0
0.0 -0.0007248144738801276 0.0
0.0 -0.0012895502759969393 0.0
0.0 -0.0017650496383727625 0.0
0.0 -0.0019144377510224542 0.0
0.0 -0.0017973791969283885 0.0
0.0 -0.001718845555902442 0.0
0.0 -0.0017925352339467006 0.0
0.0 -0.0018304766376842493 0.0
0.0 -0.0017700551048730857 0.0
0.0 -0.001768610719624831 0.0
0.0 -0.001812940367944099 0.0
0.0 -0.0017864108684441597 0.0
0.0 -0.0017717336227095004 0.0
0.0 -0.0018039839572227614 0.0
0.0 -0.0017872522282878559 0.0
0.0 -0.0017773767718272122 0.0
0.0 -0.0018009530589776022 0.0
0.0 -0.0017836036574370917 0.0
0.0 -0.0017838274953761797 0.0
0.0 -0.001798046962812744 0.0
0.0 -0.0017801956142336638 0.0
0.0 -0.0017911540959492274 0.0
0.0 -0.0017917843246273765 0.0
0.0 -0.0017814938348334893 0.0
0.0 -0.0017955159182543 0.0
0.0 -0.0017840956772142758 0.0
0.0 -0.001788829364198342 0.0
0.0 -0.0017916572230764973 0.0
0.0 -0.0017831002305796642 0.0
0.0 -0.0017941164528559855 0.0
0.0 -0.001784009086487206 0.0
0.0 -0.001790701631674957 0.0
0.0 -0.0017886387600543287 0.0
0.0 -0.0017861130765143578 0.0
0.0 -0.001792256662957582 0.0
0.0 -0.0017839611720409784 0.0
0.0 -0.0017928501433488806 0.0
0.0 -0.0017847238885594998 0.0
0.0 -0.0017910978089251152 0.0
0.0 -0.0017870504351473265 0.0
0.0 -0.0017885784293303923 0.0
0.0 -0.0017894622799136618 0.0
0.0 -0.0017864768731031136 0.0
0.0 -0.0017911437956581286 0.0
0.0 -0.0017852487765808297 0.0
0.0 -0.001791940302724888 0.0
0.0 -0.0017848274912946461 0.0
0.0 -0.001792059936822806 0.0
0.0 -0.001784931667062462 0.0
0.0 -0.0017918055099688376 0.0
0.0 -0.0017852719261100092 0.0
0.0 -0.0017914326497832096 0.0
0.0 -0.0017856355011987642 0.0
0.0 -0.0017911098722394648 0.0
0.0 -0.0017858948578581215 0.0
0.0 -0.001790929246649843 0.0
0.0 -0.001790929246649814 0.0
0.0 -0.0017858948578581288 0.0
0.0 -0.0017911098722394564 0.0
0.0 -0.001785635501198787 0.0
0.0 -0.0017914326497831942 0.0
0.0 -0.0017852719261100254 0.0
0.0 -0.0017918055099688276 0.0
0.0 -0.001784931667062469 0.0
0.0 -0.0017920599368227842 0.0
0.0 -0.0017848274912946333 0.0
0.0 -0.0017919403027248672 0.0
0.0 -0.0017852487765808564 0.0
0.0 -0.001791143795658104 0.0
0.0 -0.0017864768731031366 0.0
0.0 -0.0017894622799135966 0.0
0.0 -0.0017885784293304946 0.0
0.0 -0.001787050435147235 0.0
0.0 -0.0017910978089252124 0.0
0.0 -0.0017847238885594185 0.0
0.0 -0.0017928501433488882 0.0
0.0 -0.0017839611720410265 0.0
0.0 -0.001792256662957479 0.0
0.0 -0.0017861130765145453 0.0
0.0 -0.0017886387600540847 0.0
0.0 -0.0017907016316751827 0.0
0.0 -0.0017840090864870578 0.0
0.0 -0.0017941164528560048 0.0
0.0 -0.0017831002305798312 0.0
0.0 -0.001791657223076159 0.0
0.0 -0.0017888293641987719 0.0
0.0 -0.0017840956772138972 0.0
0.0 -0.001795515918254457 0.0
0.0 -0.0017814938348337602 0.0
0.0 -0.0017917843246267543 0.0
0.0 -0.001791154095949922 0.0
0.0 -0.0017801956142332593 0.0
0.0 -0.0017980469628124556 0.0
0.0 -0.0017838274953771455 0.0
0.0 -0.0017836036574360125 0.0
0.0 -0.0018009530589779101 0.0
0.0 -0.0017773767718281853 0.0
0.0 -0.001787252228286124 0.0
0.0 -0.001803983957223648 0.0
0.0 -0.0017717336227108165 0.0
0.0 -0.001786410868441493 0.0
0.0 -0.0018129403679449855 0.0
0.0 -0.0017686107196277971 0.0
0.0 -0.0017700551048694215 0.0
0.0 -0.0018304766376822882 0.0
0.0 -0.0017925352339533637 0.0
0.0 -0.001718845555903253 0.0
0.0 -0.0017973791969170538 0.0
0.0 -0.0019144377510205593 0.0
0.0 -0.00176504963839996 0.0
0.0 -0.0012895502760443432 0.0
0.0 -0.0007248144739240458 0.0
0.0 -0.00030823511554933054 0.0
0.0 -9.610995456531473e-05 0.0
0.0 -2.0192885789115247e-05 0.0
0.0 -2.0385469575923446e-06 0.0
0.0 2.348099690960164e-07 0.0
0.0 1.0936420503043052e-07 0.0
0.0 9.079537817605619e-09 0.0
0.0 -2.094199036281609e-09 0.0
0.0 -4.3770335899098707e-10 0.0
0.0 2.617262556954029e-11 0.0
0.0 1.2181054963922931e-11 0.0
0.0 -3.247750240494306e-13 0.0
0.0 -2.8696543593004223e-13 0.0
0.0 9.459017245576758e-15 0.0
0.0 6.0664721974390165e-15 0.0
0.0 -4.1020660595885095e-16 0.0
0.0 -1.0601033860038159e-16 0.0
0.0 1.4317018505185463e-17 0.0
0.0 1.108111742816378e-18 0.0
0.0 -3.5872131351390727e-19 0.0
0.0 1.0013979567592401e-20 0.0
0.0 5.615916144008284e-21 0.0
0.0 -7.481721927801466e-22 0.0
0.0 -1.7418285584667023e-23 0.0
0.0 1.4884654812676858e-23 0.0
0.0 -1.5117007927770136e-24 0.0
0.0 -5.493447740071847e-26 0.0
0.0 3.199350750095793e-26 0.0
0.0 -3.5337962857397744e-27 0.0
0.0 -1.0310688149294145e-30 0.0
0.0 5.526610695752825e-29 0.0
0.0 -8.395941629913942e-30 0.0
0.0 4.755724314658597e-31 0.0
0.0 4.9287466140903226e-32 0.0
0.0 -1.5122377192907654e-32 0.0
0.0 1.821416845888294e-33 0.0
0.0 -9.44173018510974e-35 0.0
0.0 -9.434977155824803e-36 0.0
0.0 3.00876467360522e-36 0.0
0.0 -4.132989783128132e-37 0.0
0.0 3.4571699096788455e-38 0.0
0.0 -8.203742519725482e-40 0.0
0.0 -3.112963600340677e-40 0.0
0.0 7.073484865395462e-41 0.0
0.0 -9.63363788430022e-42 0.0
0.0 9.68296890709378e-43 0.0
0.0 -6.755650599711525e-44 0.0
0.0 1.1208849825312196e-45 0.0
0.0 6.3522964991388574e-46 0.0
0.0 -1.447210702548252e-46 0.0
0.0 2.2034292441236184e-47 0.0
0.0 -2.8074276748889254e-48 0.0
0.0 3.201062037730408e-49 0.0
0.0 -3.367290091327835e-50 0.0
0.0 3.3239125437559284e-51 0.0
0.0 -3.112253628208343e-52 0.0
0.0 2.7846988557221452e-53 0.0
0.0 -2.393972025024651e-54 0.0
0.0 1.9856656681219015e-55 0.0
0.0 -1.5943178879775484e-56 0.0
0.0 1.2425010300893241e-57 0.0
0.0 -9.41996490237651e-59 0.0
0.0 6.960891567483903e-60 0.0
0.0 -5.021886622626911e-61 0.0
0.0 3.542443012055536e-62 0.0
0.0 -2.446741196260586e-63 0.0
0.0 1.657267247471787e-64 0.0
0.0 -1.1032199850788743e-65 0.0
0.0 7.248145160513562e-67 0.0
0.0 -4.74779774323754e-68 0.0
0.0 3.182769184981731e-69 0.0
0.0 -2.3230331335758687e-70 0.0
0.0 2.055279039682244e-71 0.0
0.0 -2.3954157698778675e-72 0.0
0.0 3.528244684324314e-73 0.0
0.0 -5.895145871772946e-74 0.0
0.0 1.0366267265399281e-74 0.0
0.0 -1.8562896801833334e-75 0.0
0.0 3.3448646257384493e-76 0.0
0.0 -6.040265898101686e-77 0.0
0.0 1.0915481570254937e-77 0.0
0.0 -1.9725249650421918e-78 0.0
0.0 3.562215308606691e-79 0.0
0.0 -6.424016625425737e-80 0.0
0.0 1.1557440060686648e-80 0.0
0.0 -2.0718370870592177e-81 0.0
0.0 3.6951684555590466e-82 0.0
0.0 -6.544800528310248e-83 0.0
0.0 1.1485659283448673e-83 0.0
0.0 -1.991469169784384e-84 0.0
0.0 3.398874478242493e-85 0.0
0.0 -5.68102416398917e-86 0.0
0.0 9.229954208983586e-87 0.0
0.0 -1.4402990884665462e-87 0.0
0.0 2.1126277116487292e-88 0.0
0.0 -2.781277573383929e-89 0.0
0.0 2.8696211237073958e-90 0.0
0.0 -7.644417243805393e-92 0.0
0.0 -7.563423035245416e-92 0.0
0.0 3.154708092181458e-92 0.0
0.0 -9.23560725791196e-93 0.0
0.0 2.360871508398242e-93 0.0
0.0 -5.608596968999686e-94 0.0
0.0 1.2718342071438224e-94 0.0
0.0 -2.7918546788295136e-95 0.0
0.0 5.9821349949311305e-96 0.0
0.0 -1.2579364661208367e-96 0.0
0.0 2.605625703828123e-97 0.0
0.0 -5.330688986057089e-98 0.0
0.0 1.0793226290369335e-98 0.0
0.0 -2.1661961397422273e-99 0.0
0.0 4.314840968627992e-100 0.0
0.0 -8.538680502911604e-101 0.0
0.0 1.6800986894697387e-101 0.0
0.0 -3.289222329757952e-102 0.0
0.0 6.410786986177541e-103 0.0
0.0 -1.2444912108141661e-103 0.0
0.0 2.4071390869628587e-104 0.0
0.0 -4.640605753534528e-105 0.0
0.0 8.919086638837508e-106 0.0
0.0 -1.7093168630924184e-106 0.0
0.0 3.266966127813968e-107 0.0
0.0 -6.227756384890373e-108 0.0
0.0 1.1841660924694413e-108 0.0
0.0 -2.2459644238191404e-109 0.0
0.0 4.249184984810143e-110 0.0
0.0 -8.018884461353743e-111 0.0
0.0 1.5094272336344935e-111 0.0
0.0 -2.833853248494765e-112 0.0
0.0 5.306160876374658e-113 0.0
0.0 -9.908027805902603e-114 0.0
0.0 1.8448432269435443e-114 0.0
0.0 -3.4249597246965316e-115 0.0
0.0 6.339146892479371e-116 0.0
0.0 -1.1696043721233835e-116 0.0
0.0 2.1509578622314175e-117 0.0
0.0 -3.942398613975429e-118 0.0
0.0 7.200712931039683e-119 0.0
0.0 -1.310472231974956e-119 0.0
0.0 2.3761263627977975e-120 0.0
0.0 -4.291835859390062e-121 0.0
0.0 7.714554409195725e-122 0.0
0.0 -1.3400068763891528e-122 0.0
0.0 -1.3230496194714362e-122 0.0
0.0 7.603147463744235e-122 0.0
0.0 -4.220595184790583e-121 0.0
0.0 2.3307745815666908e-120 0.0
0.0 -1.2817175408498883e-119 0.0
0.0 7.01914482942728e-119 0.0
0.0 -3.828229603458774e-118 0.0
0.0 2.079476270588015e-117 0.0
0.0 -1.1250454133904095e-116 0.0
0.0 6.062627120098187e-116 0.0
0.0 -3.2541467104445923e-115 0.0
0.0 1.739823668788968e-114 0.0
0.0 -9.265455346607078e-114 0.0
0.0 4.914939952329749e-113 0.0
0.0 -2.5968729198980743e-112 0.0
0.0 1.366626141154476e-111 0.0
0.0 -7.163000842653593e-111 0.0
0.0 3.739041233235546e-110 0.0
0.0 -1.9436275400290357e-109 0.0
0.0 1.0060385035469058e-108 0.0
0.0 -5.184652265055071e-108 0.0
0.0 2.659965917746051e-107 0.0
0.0 -1.3583908840739257e-106 0.0
0.0 6.903971214192664e-106 0.0
0.0 -3.491593995398201e-105 0.0
0.0 1.756769504199317e-104 0.0
0.0 -8.791782931635585e-104 0.0
0.0 4.3752394453936623e-103 0.0
0.0 -2.1645322275421914e-102 0.0
0.0 1.064182074897044e-101 0.0
0.0 -5.197316176118991e-101 0.0
0.0 2.5201837871165605e-100 0.0
0.0 -1.212527730053371e-99 0.0
0.0 5.7833961379793075e-99 0.0
0.0 -2.7314611684677744e-98 0.0
0.0 1.275288579930624e-97 0.0
0.0 -5.871869142754e-97 0.0
0.0 2.6565563292104887e-96 0.0
0.0 -1.1742085957449205e-95 0.0
0.0 5.022134074904539e-95 0.0
0.0 -2.0424716364696036e-94 0.0
0.0 7.615400467411908e-94 0.0
0.0 -2.3605679881560887e-93 0.0
0.0 3.688703604960589e-93 0.0
0.0 2.7332715418265402e-92 0.0
0.0 -3.9629971955995826e-91 0.0
0.0 3.4600616389114975e-90 0.0
0.0 -2.574012881311812e-89 0.0
0.0 1.7690109232954446e-88 0.0
0.0 -1.1594297117987477e-87 0.0
0.0 7.360689693453321e-87 0.0
0.0 -4.5657387762661295e-86 0.0
0.0 2.7815435049874566e-85 0.0
0.0 -1.6699007719393324e-84 0.0
0.0 9.901495490244517e-84 0.0
0.0 -5.807765864891787e-83 0.0
0.0 3.3739462591409585e-82 0.0
0.0 -1.9431652143157178e-81 0.0
0.0 1.1104247602721839e-80 0.0
0.0 -6.301068834557154e-80 0.0
0.0 3.5531563500142517e-79 0.0
0.0 -1.9926154773845822e-78 0.0
0.0 1.112227609381019e-77 0.0
0.0 -6.184731309740163e-77 0.0
0.0 3.4302365916496164e-76 0.0
0.0 -1.9015033078228487e-75 0.0
0.0 1.0584872449754393e-74 0.0
0.0 -5.991646632648275e-74 0.0
0.0 3.566469200367215e-73 0.0
0.0 -2.4083231972195334e-72 0.0
0.0 2.058395320630716e-71 0.0
0.0 -2.322991478097123e-70 0.0
0.0 3.1820688381060454e-69 0.0
0.0 -4.7472024796660774e-68 0.0
0.0 7.247783360201758e-67 0.0
0.0 -1.1032017856235504e-65 0.0
0.0 1.6572595379894464e-64 0.0
0.0 -2.4467386171343087e-63 0.0
0.0 3.5424425438742604e-62 0.0
0.0 -5.021886826339958e-61 0.0
0.0 6.960891867305719e-60 0.0
0.0 -9.41996512383358e-59 0.0
0.0 1.2425010425400808e-57 0.0
0.0 -1.5943178933246077e-56 0.0
0.0 1.985665669212654e-55 0.0
0.0 -2.3939720238515715e-54 0.0
0.0 2.7846988534358003e-53 0.0
0.0 -3.1122536254058907e-52 0.0
0.0 3.323912540745111e-51 0.0
0.0 -3.3672900882980517e-50 0.0
0.0 3.201062034840199e-49 0.0
0.0 -2.807427672296092e-48 0.0
0.0 2.20342924197921e-47 0.0
0.0 -1.447210700974103e-46 0.0
0.0 6.352296489737689e-46 0.0
0.0 1.1208849857554116e-45 0.0
0.0 -6.755650597787193e-44 0.0
0.0 9.682968901772769e-43 0.0
0.0 -9.633637877702212e-42 0.0
0.0 7.07348485952683e-41 0.0
0.0 -3.1129635966145476e-40 0.0
0.0 -8.203742530489104e-40 0.0
0.0 3.4571699085281477e-38 0.0
0.0 -4.132989780818115e-37 0.0
0.0 3.008764671360612e-36 0.0
0.0 -9.434977142862238e-36 0.0
0.0 -9.441730186085795e-35 0.0
0.0 1.8214168451414635e-33 0.0
0.0 -1.5122377183523922e-32 0.0
0.0 4.9287466083247726e-32 0.0
0.0 4.755724314936897e-31 0.0
0.0 -8.395941626552597e-30 0.0
0.0 5.526610692170594e-29 0.0
0.0 -1.0310686735944787e-30 0.0
0.0 -3.533796284882253e-27 0.0
0.0 3.1993507484917524e-26 0.0
0.0 -5.493447731595235e-26 0.0
0.0 -1.5117007925262697e-24 0.0
0.0 1.4884654805988042e-23 0.0
0.0 -1.7418285551585952e-23 0.0
0.0 -7.481721926314697e-22 0.0
0.0 5.6159161413398875e-21 0.0
0.0 1.0013979574550735e-20 0.0
0.0 -3.587213134120166e-19 0.0
0.0 1.1081117420124503e-18 0.0
0.0 1.4317018503359388e-17 0.0
0.0 -1.060103385559967e-16 0.0
0.0 -4.1020660599720837e-16 0.0
0.0 6.0664721955262615e-15 0.0
0.0 9.459017250221866e-15 0.0
0.0 -2.869654358535786e-13 0.0
0.0 -3.247750242606032e-13 0.0
0.0 1.2181054960841472e-11 0.0
0.0 2.6172625574188193e-11 0.0
0.0 -4.37703358871459e-10 0.0
0.0 -2.094199036142972e-09 0.0
0.0 9.079537814144467e-09 0.0
0.0 1.0936420501227185e-07 0.0
0.0 2.3480996910913648e-07 0.0
0.0 -2.0385469570296606e-06 0.0
0.0 -2.0192885785809274e-05 0.0
0.0 -9.610995455388228e-05 0.0
0.0 -0.00030823511552246065 0.0
0.0 -0.000724814473880119 0.0
0.0 -0.001289550275996947 0.0
0.0 -0.0017650496383727551 0.0
0.0 -0.0019144377510224534 0.0
0.0 -0.0017973791969283957 0.0
0.0 -0.0017188455559024461 0.0
0.0 -0.0017925352339467023 0.0
0.0 -0.0018304766376842402 0.0
0.0 -0.0017700551048730894 0.0
0.0 -0.0017686107196248349 0.0
0.0 -0.0018129403679440857 0.0
0.0 -0.001786410868444156 0.0
0.0 -0.0017717336227095054 0.0
0.0 -0.0018039839572227562 0.0
0.0 -0.0017872522282878656 0.0
0.0 -0.0017773767718272245 0.0
0.0 -0.0018009530589775974 0.0
0.0 -0.0017836036574371032 0.0
0.0 -0.0017838274953761763 0.0
0.0 -0.0017980469628127377 0.0
0.0 -0.0017801956142336555 0.0
0.0 -0.001791154095949214 0.0
0.0 -0.0017917843246273624 0.0
0.0 -0.001781493834833503 0.0
0.0 -0.0017955159182543275 0.0
0.0 -0.001784095677214267 0.0
0.0 -0.001788829364198323 0.0
0.0 -0.0017916572230764869 0.0
0.0 -0.0017831002305796644 0.0
0.0 -0.0017941164528559729 0.0
0.0 -0.0017840090864872152 0.0
0.0 -0.0017907016316749417 0.0
0.0 -0.0017886387600543124 0.0
0.0 -0.0017861130765143608 0.0
0.0 -0.0017922566629575958 0.0
0.0 -0.0017839611720409816 0.0
0.0 -0.0017928501433488676 0.0
0.0 -0.001784723888559488 0.0
0.0 -0.001791097808925123 0.0
0.0 -0.0017870504351473263 0.0
0.0 -0.0017885784293304092 0.0
0.0 -0.0017894622799136607 0.0
0.0 -0.0017864768731030998 0.0
0.0 -0.0017911437956581453 0.0
0.0 -0.0017852487765808499 0.0
0.0 -0.0017919403027248763 0.0
0.0 -0.0017848274912946357 0.0
0.0 -0.0017920599368227955 0.0
0.0 -0.0017849316670624693 0.0
0.0 -0.0017918055099688378 0.0
0.0 -0.0017852719261100011 0.0
0.0 -0.001791432649783201 0.0
0.0 -0.0017856355011987748 0.0
0.0 -0.0017911098722394687 0.0
0.0 -0.0017858948578581084 0.0
0.0 -0.001790929246649833 0.0
0.0 -0.0017909292466498155 0.0
0.0 -0.0017858948578581434 0.0
0.0 -0.0017911098722394512 0.0
0.0 -0.0017856355011987867 0.0
0.0 -0.001791432649783192 0.0
0.0 -0.0017852719261100204 0.0
0.0 -0.0017918055099688261 0.0
0.0 -0.00178493166706247 0.0
0.0 -0.0017920599368227946 0.0
0.0 -0.0017848274912946399 0.0
0.0 -0.0017919403027248793 0.0
0.0 -0.0017852487765808549 0.0
0.0 -0.0017911437956581045 0.0
0.0 -0.00178647687310316 0.0
0.0 -0.0017894622799136022 0.0
0.0 -0.0017885784293304868 0.0
0.0 -0.0017870504351472395 0.0
0.0 -0.001791097808925216 0.0
0.0 -0.0017847238885594276 0.0
0.0 -0.0017928501433488958 0.0
0.0 -0.0017839611720410233 0.0
0.0 -0.0017922566629574692 0.0
0.0 -0.00178611307651454 0.0
0.0 -0.0017886387600540893 0.0
0.0 -0.0017907016316751863 0.0
0.0 -0.001784009086487049 0.0
0.0 -0.001794116452856002 0.0
0.0 -0.001783100230579822 0.0
0.0 -0.0017916572230761525 0.0
0.0 -0.001788829364198768 0.0
0.0 -0.0017840956772138905 0.0
0.0 -0.0017955159182544277 0.0
0.0 -0.0017814938348337504 0.0
0.0 -0.0017917843246267556 0.0
0.0 -0.0017911540959499274 0.0
0.0 -0.0017801956142332648 0.0
0.0 -0.0017980469628124506 0.0
0.0 -0.0017838274953771416 0.0
0.0 -0.0017836036574359966 0.0
0.0 -0.0018009530589779223 0.0
0.0 -0.0017773767718281893 0.0