# vtk DataFile Version 2.0
data_159
ASCII
DATASET UNSTRUCTURED_GRID
POINTS 804 float
0.0 0.0 0.0
0.1 0.0 0.0
0.1 20.0 0.0
0.0 20.0 0.0
0.0 0.0 -0.1
0.1 0.0 -0.1
0.1 20.0 -0.1
0.0 20.0 -0.1
0.1 0.09999999999992462 0.0
0.1 0.1999999999998517 0.0
0.1 0.2999999999997818 0.0
0.1 0.399999999999712 0.0
0.1 0.4999999999996377 0.0
0.1 0.5999999999995541 0.0
0.1 0.6999999999994495 0.0
0.1 0.7999999999993355 0.0
0.1 0.8999999999992101 0.0
0.1 0.999999999999102 0.0
0.1 1.099999999999006 0.0
0.1 1.199999999998936 0.0
0.1 1.299999999998867 0.0
0.1 1.399999999998797 0.0
0.1 1.499999999998727 0.0
0.1 1.599999999998657 0.0
0.1 1.699999999998587 0.0
0.1 1.799999999998517 0.0
0.1 1.899999999998447 0.0
0.1 1.999999999998378 0.0
0.1 2.099999999998308 0.0
0.1 2.199999999998238 0.0
0.1 2.299999999998168 0.0
0.1 2.399999999998067 0.0
0.1 2.499999999997942 0.0
0.1 2.599999999997706 0.0
0.1 2.699999999997444 0.0
0.1 2.799999999997153 0.0
0.1 2.899999999996861 0.0
0.1 2.999999999996569 0.0
0.1 3.099999999996277 0.0
0.1 3.199999999995984 0.0
0.1 3.299999999995693 0.0
0.1 3.399999999995401 0.0
0.1 3.499999999995108 0.0
0.1 3.599999999994816 0.0
0.1 3.699999999994525 0.0
0.1 3.799999999994232 0.0
0.1 3.89999999999394 0.0
0.1 3.999999999993648 0.0
0.1 4.099999999993356 0.0
0.1 4.199999999993064 0.0
0.1 4.299999999992772 0.0
0.1 4.399999999992479 0.0
0.1 4.499999999992188 0.0
0.1 4.599999999991895 0.0
0.1 4.699999999991603 0.0
0.1 4.799999999991311 0.0
0.1 4.899999999991019 0.0
0.1 4.999999999990727 0.0
0.1 5.099999999990436 0.0
0.1 5.199999999990144 0.0
0.1 5.299999999989851 0.0
0.1 5.399999999989559 0.0
0.1 5.499999999989267 0.0
0.1 5.599999999988975 0.0
0.1 5.699999999988683 0.0
0.1 5.799999999988391 0.0
0.1 5.899999999988099 0.0
0.1 5.999999999987806 0.0
0.1 6.099999999987515 0.0
0.1 6.199999999987222 0.0
0.1 6.299999999986929 0.0
0.1 6.399999999986638 0.0
0.1 6.499999999986345 0.0
0.1 6.599999999986054 0.0
0.1 6.699999999985762 0.0
0.1 6.79999999998547 0.0
0.1 6.899999999985177 0.0
0.1 6.999999999984885 0.0
0.1 7.099999999984593 0.0
0.1 7.199999999984302 0.0
0.1 7.299999999984009 0.0
0.1 7.399999999983717 0.0
0.1 7.499999999983426 0.0
0.1 7.599999999983132 0.0
0.1 7.699999999982841 0.0
0.1 7.799999999982549 0.0
0.1 7.899999999982256 0.0
0.1 7.999999999982034 0.0
0.1 8.099999999981964 0.0
0.1 8.199999999982062 0.0
0.1 8.299999999982214 0.0
0.1 8.399999999982366 0.0
0.1 8.499999999982517 0.0
0.1 8.59999999998267 0.0
0.1 8.699999999982822 0.0
0.1 8.799999999982973 0.0
0.1 8.899999999983125 0.0
0.1 8.999999999983277 0.0
0.1 9.09999999998343 0.0
0.1 9.19999999998358 0.0
0.1 9.299999999983733 0.0
0.1 9.399999999983885 0.0
0.1 9.499999999984038 0.0
0.1 9.599999999984188 0.0
0.1 9.69999999998434 0.0
0.1 9.799999999984493 0.0
0.1 9.899999999984646 0.0
0.1 9.999999999984798 0.0
0.1 10.09999999998495 0.0
0.1 10.1999999999851 0.0
0.1 10.29999999998525 0.0
0.1 10.39999999998541 0.0
0.1 10.49999999998556 0.0
0.1 10.59999999998571 0.0
0.1 10.69999999998586 0.0
0.1 10.79999999998601 0.0
0.1 10.89999999998616 0.0
0.1 10.99999999998632 0.0
0.1 11.09999999998647 0.0
0.1 11.19999999998662 0.0
0.1 11.29999999998677 0.0
0.1 11.39999999998693 0.0
0.1 11.49999999998708 0.0
0.1 11.59999999998723 0.0
0.1 11.69999999998738 0.0
0.1 11.79999999998754 0.0
0.1 11.89999999998769 0.0
0.1 11.99999999998784 0.0
0.1 12.09999999998799 0.0
0.1 12.19999999998814 0.0
0.1 12.2999999999883 0.0
0.1 12.39999999998845 0.0
0.1 12.4999999999886 0.0
0.1 12.59999999998875 0.0
0.1 12.6999999999889 0.0
0.1 12.79999999998905 0.0
0.1 12.89999999998921 0.0
0.1 12.99999999998936 0.0
0.1 13.09999999998951 0.0
0.1 13.19999999998966 0.0
0.1 13.29999999998982 0.0
0.1 13.39999999998997 0.0
0.1 13.49999999999012 0.0
0.1 13.59999999999027 0.0
0.1 13.69999999999042 0.0
0.1 13.79999999999057 0.0
0.1 13.89999999999073 0.0
0.1 13.99999999999088 0.0
0.1 14.09999999999103 0.0
0.1 14.19999999999118 0.0
0.1 14.29999999999134 0.0
0.1 14.39999999999149 0.0
0.1 14.49999999999164 0.0
0.1 14.59999999999179 0.0
0.1 14.69999999999194 0.0
0.1 14.7999999999921 0.0
0.1 14.89999999999225 0.0
0.1 14.9999999999924 0.0
0.1 15.09999999999255 0.0
0.1 15.1999999999927 0.0
0.1 15.29999999999285 0.0
0.1 15.39999999999301 0.0
0.1 15.49999999999316 0.0
0.1 15.59999999999331 0.0
0.1 15.69999999999346 0.0
0.1 15.79999999999362 0.0
0.1 15.89999999999377 0.0
0.1 15.99999999999392 0.0
0.1 16.09999999999407 0.0
0.1 16.19999999999422 0.0
0.1 16.29999999999437 0.0
0.1 16.39999999999453 0.0
0.1 16.49999999999468 0.0
0.1 16.59999999999483 0.0
0.1 16.69999999999498 0.0
0.1 16.79999999999514 0.0
0.1 16.89999999999528 0.0
0.1 16.99999999999544 0.0
0.1 17.09999999999559 0.0
0.1 17.19999999999574 0.0
0.1 17.29999999999589 0.0
0.1 17.39999999999605 0.0
0.1 17.4999999999962 0.0
0.1 17.59999999999635 0.0
0.1 17.6999999999965 0.0
0.1 17.79999999999665 0.0
0.1 17.89999999999681 0.0
0.1 17.99999999999696 0.0
0.1 18.09999999999711 0.0
0.1 18.19999999999726 0.0
0.1 18.29999999999742 0.0
0.1 18.39999999999757 0.0
0.1 18.49999999999772 0.0
0.1 18.59999999999787 0.0
0.1 18.69999999999802 0.0
0.1 18.79999999999818 0.0
0.1 18.89999999999833 0.0
0.1 18.99999999999848 0.0
0.1 19.09999999999863 0.0
0.1 19.19999999999878 0.0
0.1 19.29999999999894 0.0
0.1 19.39999999999909 0.0
0.1 19.49999999999924 0.0
0.1 19.59999999999939 0.0
0.1 19.69999999999955 0.0
0.1 19.7999999999997 0.0
0.1 19.89999999999985 0.0
0.0 19.9 0.0
0.0 19.8 0.0
0.0 19.7 0.0
0.0 19.6 0.0
0.0 19.5 0.0
0.0 19.4 0.0
0.0 19.3 0.0
0.0 19.2 0.0
0.0 19.1 0.0
0.0 19.0 0.0
0.0 18.9 0.0
0.0 18.8 0.0
0.0 18.7 0.0
0.0 18.6 0.0
0.0 18.5 0.0
0.0 18.4 0.0
0.0 18.3 0.0
0.0 18.2 0.0
0.0 18.1 0.0
0.0 18.0 0.0
0.0 17.9 0.0
0.0 17.8 0.0
0.0 17.7 0.0
0.0 17.6 0.0
0.0 17.5 0.0
0.0 17.4 0.0
0.0 17.3 0.0
0.0 17.2 0.0
0.0 17.09999999999999 0.0
0.0 17.0 0.0
0.0 16.9 0.0
0.0 16.8 0.0
0.0 16.7 0.0
0.0 16.59999999999999 0.0
0.0 16.49999999999999 0.0
0.0 16.4 0.0
0.0 16.29999999999999 0.0
0.0 16.2 0.0
0.0 16.09999999999999 0.0
0.0 15.99999999999999 0.0
0.0 15.89999999999999 0.0
0.0 15.79999999999999 0.0
0.0 15.69999999999999 0.0
0.0 15.59999999999999 0.0
0.0 15.49999999999999 0.0
0.0 15.39999999999999 0.0
0.0 15.29999999999999 0.0
0.0 15.19999999999999 0.0
0.0 15.09999999999999 0.0
0.0 14.99999999999999 0.0
0.0 14.89999999999999 0.0
0.0 14.79999999999999 0.0
0.0 14.69999999999999 0.0
0.0 14.59999999999999 0.0
0.0 14.49999999999999 0.0
0.0 14.39999999999999 0.0
0.0 14.29999999999999 0.0
0.0 14.19999999999999 0.0
0.0 14.09999999999999 0.0
0.0 13.99999999999999 0.0
0.0 13.89999999999999 0.0
0.0 13.79999999999999 0.0
0.0 13.69999999999999 0.0
0.0 13.59999999999999 0.0
0.0 13.49999999999999 0.0
0.0 13.39999999999999 0.0
0.0 13.29999999999999 0.0
0.0 13.19999999999999 0.0
0.0 13.09999999999999 0.0
0.0 12.99999999999999 0.0
0.0 12.89999999999999 0.0
0.0 12.79999999999999 0.0
0.0 12.69999999999999 0.0
0.0 12.59999999999999 0.0
0.0 12.49999999999999 0.0
0.0 12.39999999999999 0.0
0.0 12.29999999999999 0.0
0.0 12.19999999999999 0.0
0.0 12.09999999999999 0.0
0.0 11.99999999999999 0.0
0.0 11.89999999999999 0.0
0.0 11.79999999999999 0.0
0.0 11.69999999999999 0.0
0.0 11.59999999999999 0.0
0.0 11.49999999999999 0.0
0.0 11.39999999999999 0.0
0.0 11.29999999999999 0.0
0.0 11.19999999999999 0.0
0.0 11.09999999999999 0.0
0.0 10.99999999999999 0.0
0.0 10.89999999999999 0.0
0.0 10.79999999999999 0.0
0.0 10.69999999999999 0.0
0.0 10.59999999999999 0.0
0.0 10.49999999999999 0.0
0.0 10.39999999999999 0.0
0.0 10.29999999999999 0.0
0.0 10.19999999999999 0.0
0.0 10.09999999999999 0.0
0.0 9.999999999999993 0.0
0.0 9.899999999999993 0.0
0.0 9.799999999999994 0.0
0.0 9.699999999999992 0.0
0.0 9.599999999999993 0.0
0.0 9.499999999999993 0.0
0.0 9.399999999999993 0.0
0.0 9.299999999999995 0.0
0.0 9.199999999999996 0.0
0.0 9.099999999999994 0.0
0.0 8.999999999999995 0.0
0.0 8.899999999999995 0.0
0.0 8.799999999999994 0.0
0.0 8.699999999999994 0.0
0.0 8.599999999999994 0.0
0.0 8.499999999999995 0.0
0.0 8.399999999999995 0.0
0.0 8.299999999999994 0.0
0.0 8.199999999999994 0.0
0.0 8.099999999999994 0.0
0.0 7.999999999999993 0.0
0.0 7.899999999999995 0.0
0.0 7.799999999999995 0.0
0.0 7.699999999999996 0.0
0.0 7.599999999999996 0.0
0.0 7.499999999999996 0.0
0.0 7.399999999999995 0.0
0.0 7.299999999999995 0.0
0.0 7.199999999999996 0.0
0.0 7.099999999999994 0.0
0.0 6.999999999999995 0.0
0.0 6.899999999999995 0.0
0.0 6.799999999999995 0.0
0.0 6.699999999999996 0.0
0.0 6.599999999999994 0.0
0.0 6.499999999999995 0.0
0.0 6.399999999999997 0.0
0.0 6.299999999999997 0.0
0.0 6.199999999999996 0.0
0.0 6.099999999999996 0.0
0.0 5.999999999999996 0.0
0.0 5.899999999999997 0.0
0.0 5.799999999999997 0.0
0.0 5.699999999999996 0.0
0.0 5.599999999999996 0.0
0.0 5.499999999999996 0.0
0.0 5.399999999999995 0.0
0.0 5.299999999999995 0.0
0.0 5.199999999999996 0.0
0.0 5.099999999999996 0.0
0.0 4.999999999999998 0.0
0.0 4.899999999999999 0.0
0.0 4.799999999999997 0.0
0.0 4.699999999999998 0.0
0.0 4.599999999999998 0.0
0.0 4.499999999999996 0.0
0.0 4.399999999999997 0.0
0.0 4.299999999999997 0.0
0.0 4.199999999999998 0.0
0.0 4.099999999999998 0.0
0.0 3.999999999999996 0.0
0.0 3.899999999999999 0.0
0.0 3.799999999999997 0.0
0.0 3.699999999999996 0.0
0.0 3.599999999999998 0.0
0.0 3.5 0.0
0.0 3.399999999999999 0.0
0.0 3.299999999999997 0.0
0.0 3.199999999999999 0.0
0.0 3.099999999999998 0.0
0.0 3.0 0.0
0.0 2.899999999999999 0.0
0.0 2.799999999999997 0.0
0.0 2.699999999999999 0.0
0.0 2.599999999999998 0.0
0.0 2.499999999999996 0.0
0.0 2.399999999999999 0.0
0.0 2.299999999999997 0.0
0.0 2.199999999999999 0.0
0.0 2.100000000000001 0.0
0.0 2.0 0.0
0.0 1.899999999999999 0.0
0.0 1.800000000000001 0.0
0.0 1.699999999999999 0.0
0.0 1.599999999999998 0.0
0.0 1.5 0.0
0.0 1.399999999999999 0.0
0.0 1.299999999999997 0.0
0.0 1.199999999999999 0.0
0.0 1.099999999999998 0.0
0.0 1.0 0.0
0.0 0.8999999999999986 0.0
0.0 0.8000000000000007 0.0
0.0 0.6999999999999993 0.0
0.0 0.6000000000000014 0.0
0.0 0.5 0.0
0.0 0.3999999999999986 0.0
0.0 0.3000000000000007 0.0
0.0 0.1999999999999993 0.0
[...]
POINT_DATA 804
VECTORS displacement double
0.0 0.0 0.0
0.0 0.0 0.0
0.0 -0.0017881284101361446 0.0
0.0 -0.0017881284101361394 0.0
0.0 0.0 0.0
0.0 0.0 0.0
0.0 -0.0017881284101361444 0.0
0.0 -0.0017881284101361418 0.0
0.0 6.509006720423109e-71 0.0
0.0 -2.3180349061547834e-70 0.0
0.0 -1.5792999414465536e-69 0.0
0.0 3.6414135492485977e-68 0.0
0.0 -3.529962441736858e-67 0.0
0.0 1.916976909106918e-66 0.0
0.0 4.500308244708549e-67 0.0
0.0 -1.3560766514172755e-64 0.0
0.0 1.5944034742922956e-63 0.0
0.0 -9.717372144383762e-63 0.0
0.0 6.583570224003419e-63 0.0
0.0 5.685694306489076e-61 0.0
0.0 -6.826213038032333e-60 0.0
0.0 3.826555795518935e-59 0.0
0.0 2.795429220503854e-59 0.0
0.0 -2.7686250618593606e-57 0.0
0.0 2.7206145408754397e-56 0.0
0.0 -1.0326585281939844e-55 0.0
0.0 -6.799250037397165e-55 0.0
0.0 1.319823607146208e-53 0.0
0.0 -8.525096766339697e-53 0.0
0.0 -9.848633649078175e-54 0.0
0.0 5.3268238215724545e-51 0.0
0.0 -4.757845434686666e-50 0.0
0.0 9.804706430695878e-50 0.0
0.0 2.0096806516498058e-48 0.0
0.0 -2.2710216525034504e-47 0.0
0.0 6.707801559516534e-47 0.0
0.0 7.956052578242875e-46 0.0
0.0 -1.003989941811188e-44 0.0
0.0 2.9527695620178017e-44 0.0
0.0 3.5770259927958827e-43 0.0
0.0 -4.1838554563320965e-42 0.0
0.0 8.422179606092304e-42 0.0
0.0 1.7666709370203234e-40 0.0
0.0 -1.5780354841738562e-39 0.0
0.0 -2.1580789414224054e-41 0.0
0.0 8.501276132612392e-38 0.0
0.0 -4.724642565348389e-37 0.0
0.0 -1.9655213291071476e-36 0.0
0.0 3.455827277772963e-35 0.0
0.0 -6.458839716062184e-35 0.0
0.0 -1.4670765848517288e-33 0.0
0.0 9.512628685606796e-33 0.0
0.0 3.492753976893449e-32 0.0
0.0 -5.97300604689807e-31 0.0
0.0 3.647546535301892e-31 0.0
0.0 2.743680189630219e-29 0.0
0.0 -9.627781246416329e-29 0.0
0.0 -1.0284313470174117e-27 0.0
0.0 6.788152910380499e-27 0.0
0.0 3.2934148596709954e-26 0.0
0.0 -3.5881240636815145e-25 0.0
0.0 -9.426343399373115e-25 0.0
0.0 1.653195198291763e-23 0.0
0.0 2.711645542182556e-23 0.0
0.0 -7.032047734497148e-22 0.0
0.0 -1.0100198042952937e-21 0.0
0.0 2.815573940350547e-20 0.0
0.0 5.42264393431895e-20 0.0
0.0 -1.0459656317382242e-18 0.0
0.0 -3.2936133262512146e-18 0.0
0.0 3.3883649223039226e-17 0.0
0.0 1.8318573270568562e-16 0.0
0.0 -7.973022208901725e-16 0.0
0.0 -8.415253481142185e-15 0.0
0.0 2.2138224390352997e-15 0.0
0.0 2.8475882933754734e-13 0.0
0.0 9.782942323526349e-13 0.0
0.0 -4.896288889539358e-12 0.0
0.0 -5.1339266101180684e-11 0.0
0.0 -1.0507963275422338e-10 0.0
0.0 9.019781540726168e-10 0.0
0.0 7.947633027287105e-09 0.0
0.0 2.4341351801513515e-08 0.0
0.0 -4.305532600811698e-08 0.0
0.0 -8.824907957623882e-07 0.0
0.0 -5.451856557829153e-06 0.0
0.0 -2.288505154861054e-05 0.0
0.0 -7.442290868194853e-05 0.0
0.0 -0.00019671342445253624 0.0
0.0 -0.00043194981728979676 0.0
0.0 -0.0007963031814674601 0.0
0.0 -0.0012390612818618352 0.0
0.0 -0.0016355907180684852 0.0
0.0 -0.0018542180330667248 0.0
0.0 -0.001865547088303129 0.0
0.0 -0.001780256143548218 0.0
0.0 -0.0017422205211607045 0.0
0.0 -0.001781366861621647 0.0
0.0 -0.001815062368042048 0.0
0.0 -0.0017944029995096125 0.0
0.0 -0.0017699736409058774 0.0
0.0 -0.0017848939116372723 0.0
0.0 -0.0018011736943101975 0.0
0.0 -0.0017874649563005243 0.0
0.0 -0.0017784386352041968 0.0
0.0 -0.001791637245526418 0.0
0.0 -0.0017938440629015355 0.0
0.0 -0.0017825348477023026 0.0
0.0 -0.0017862042378665505 0.0
0.0 -0.00179333776780282 0.0
0.0 -0.0017861841080670817 0.0
0.0 -0.001784880624773852 0.0
0.0 -0.0017916762290095666 0.0
0.0 -0.0017878222812582572 0.0
0.0 -0.0017850959264313479 0.0
0.0 -0.0017905580967795488 0.0
0.0 -0.0017882218828198266 0.0
0.0 -0.0017856392552881915 0.0
0.0 -0.0017900352104528508 0.0
0.0 -0.0017880344934966205 0.0
0.0 -0.0017862192278341018 0.0
0.0 -0.0017898266729753686 0.0
0.0 -0.0017875879766844876 0.0
0.0 -0.0017868659892543404 0.0
0.0 -0.0017896454093371587 0.0
0.0 -0.0017870906392556645 0.0
0.0 -0.0017876318752014064 0.0
0.0 -0.0017892526184758127 0.0
0.0 -0.0017867788280150425 0.0
0.0 -0.001788429649253911 0.0
0.0 -0.0017885397421808836 0.0
0.0 -0.0017869118571644225 0.0
0.0 -0.0017889669131477659 0.0
0.0 -0.0017876736103919536 0.0
0.0 -0.0017875792076232394 0.0
0.0 -0.0017888843653327683 0.0
0.0 -0.0017871339018750974 0.0
0.0 -0.001788440755883199 0.0
0.0 -0.0017881512337691863 0.0
0.0 -0.0017873788646940183 0.0
0.0 -0.0017887881921279062 0.0
0.0 -0.0017873861914186483 0.0
0.0 -0.0017882134030680903 0.0
0.0 -0.0017882388391603037 0.0
0.0 -0.001787436097985602 0.0
0.0 -0.0017886664025712179 0.0
0.0 -0.001787469537789997 0.0
0.0 -0.0017882336064811814 0.0
0.0 -0.0017881179595642407 0.0
0.0 -0.001787595178486481 0.0
0.0 -0.0017885558393606002 0.0
0.0 -0.001787462883534628 0.0
0.0 -0.0017883781435146303 0.0
0.0 -0.001787870744902743 0.0
0.0 -0.0017878683379978246 0.0
0.0 -0.0017883469998569773 0.0
0.0 -0.0017875340132636219 0.0
0.0 -0.0017884788436143652 0.0
0.0 -0.0017876121728978636 0.0
0.0 -0.0017882284407392587 0.0
0.0 -0.0017879677080351586 0.0
0.0 -0.0017878456145110485 0.0
0.0 -0.0017883061032654209 0.0
0.0 -0.0017876052126763727 0.0
0.0 -0.0017884192511968386 0.0
0.0 -0.0017876238094477119 0.0
0.0 -0.0017882853669243682 0.0
0.0 -0.0017878420298772133 0.0
0.0 -0.0017880209752829596 0.0
0.0 -0.001788114004496994 0.0
0.0 -0.0017877751284824258 0.0
0.0 -0.0017883083462126076 0.0
0.0 -0.0017876478161009393 0.0
0.0 -0.0017883628863016381 0.0
0.0 -0.0017876633107556036 0.0
0.0 -0.0017882865915015546 0.0
0.0 -0.0017877869677862008 0.0
0.0 -0.001788131023835201 0.0
0.0 -0.0017879588896193629 0.0
0.0 -0.001787956973647272 0.0
0.0 -0.0017881231542694678 0.0
0.0 -0.0017878115986978325 0.0
0.0 -0.001788243485768345 0.0
0.0 -0.0017877196915452808 0.0
0.0 -0.0017883060120392766 0.0
0.0 -0.0017876855596588065 0.0
0.0 -0.0017883141848234504 0.0
0.0 -0.0017876999605914538 0.0
0.0 -0.0017882811225433952 0.0
0.0 -0.001787747613973931 0.0
0.0 -0.001788222838623884 0.0
0.0 -0.0017878128834456243 0.0
0.0 -0.001788153796929585 0.0
0.0 -0.001787882987659176 0.0
0.0 -0.0017880848280058521 0.0
0.0 -0.0017879491229550622 0.0
0.0 -0.001788022775533468 0.0
0.0 -0.0017880062405707673 0.0
0.0 -0.001787971118370347 0.0
0.0 -0.0017880521772513527 0.0
0.0 -0.0017879309645577465 0.0
0.0 -0.0017880866301154727 0.0
0.0 -0.0017879020408635533 0.0
0.0 -0.001788110246546343 0.0
0.0 -0.001787883498006465 0.0
0.0 -0.0017881239353966607 0.0
0.0 -0.001787874481257457 0.0
0.0 -0.0017878744812574448 0.0
0.0 -0.0017881239353966618 0.0
0.0 -0.0017878834980064667 0.0
0.0 -0.001788110246546359 0.0
0.0 -0.0017879020408635444 0.0
0.0 -0.0017880866301154886 0.0
0.0 -0.0017879309645577532 0.0
0.0 -0.0017880521772513543 0.0
0.0 -0.0017879711183703567 0.0
0.0 -0.001788006240570765 0.0
0.0 -0.0017880227755334573 0.0
0.0 -0.0017879491229550566 0.0
0.0 -0.0017880848280058671 0.0
0.0 -0.0017878829876591654 0.0
0.0 -0.0017881537969295798 0.0
0.0 -0.0017878128834456315 0.0
0.0 -0.0017882228386238868 0.0
0.0 -0.0017877476139739241 0.0
0.0 -0.0017882811225433878 0.0
0.0 -0.0017876999605914514 0.0
0.0 -0.0017883141848234337 0.0
0.0 -0.0017876855596587965 0.0
0.0 -0.0017883060120392638 0.0
0.0 -0.0017877196915452752 0.0
0.0 -0.001788243485768341 0.0
0.0 -0.0017878115986978353 0.0
0.0 -0.001788123154269467 0.0
0.0 -0.0017879569736472917 0.0
0.0 -0.0017879588896193613 0.0
0.0 -0.0017881310238352084 0.0
0.0 -0.0017877869677861908 0.0
0.0 -0.001788286591501565 0.0
0.0 -0.0017876633107556088 0.0
0.0 -0.0017883628863016498 0.0
0.0 -0.0017876478161009692 0.0
0.0 -0.0017883083462125868 0.0
0.0 -0.0017877751284824347 0.0
0.0 -0.0017881140044969672 0.0
0.0 -0.0017880209752829928 0.0
0.0 -0.0017878420298771938 0.0
0.0 -0.001788285366924393 0.0
0.0 -0.0017876238094477188 0.0
0.0 -0.001788419251196837 0.0
0.0 -0.0017876052126763685 0.0
0.0 -0.0017883061032653957 0.0
0.0 -0.0017878456145110845 0.0
0.0 -0.0017879677080351246 0.0
0.0 -0.0017882284407392973 0.0
0.0 -0.0017876121728978565 0.0
0.0 -0.001788478843614363 0.0
0.0 -0.0017875340132636336 0.0
0.0 -0.001788346999856929 0.0
0.0 -0.0017878683379978788 0.0
0.0 -0.0017878707449026877 0.0
0.0 -0.0017883781435146752 0.0
0.0 -0.0017874628835345947 0.0
0.0 -0.0017885558393605887 0.0
0.0 -0.0017875951784865347 0.0
0.0 -0.001788117959564169 0.0
0.0 -0.001788233606481267 0.0
0.0 -0.0017874695377899685 0.0
0.0 -0.0017886664025712124 0.0
0.0 -0.0017874360979856711 0.0
0.0 -0.0017882388391602252 0.0
0.0 -0.0017882134030681829 0.0
0.0 -0.0017873861914185823 0.0
0.0 -0.0017887881921278999 0.0
0.0 -0.0017873788646941135 0.0
0.0 -0.0017881512337690438 0.0
0.0 -0.0017884407558833065 0.0
0.0 -0.0017871339018750462 0.0
0.0 -0.0017888843653326996 0.0
0.0 -0.001787579207623411 0.0
0.0 -0.0017876736103917806 0.0
0.0 -0.0017889669131478554 0.0
0.0 -0.0017869118571644904 0.0
0.0 -0.0017885397421806598 0.0
0.0 -0.0017884296492541435 0.0
0.0 -0.0017867788280149324 0.0
0.0 -0.0017892526184756956 0.0
0.0 -0.0017876318752017063 0.0
0.0 -0.0017870906392553944 0.0
0.0 -0.0017896454093371842 0.0
0.0 -0.0017868659892546358 0.0
0.0 -0.0017875879766840763 0.0
0.0 -0.0017898266729755585 0.0
0.0 -0.0017862192278343605 0.0
0.0 -0.0017880344934960777 0.0
0.0 -0.001790035210453152 0.0
0.0 -0.001785639255288476 0.0
0.0 -0.0017882218828191576 0.0
0.0 -0.0017905580967799482 0.0
0.0 -0.0017850959264317657 0.0
0.0 -0.001787822281257359 0.0
0.0 -0.0017916762290099307 0.0
0.0 -0.001784880624774634 0.0
0.0 -0.0017861841080659634 0.0
0.0 -0.001793337767802738 0.0
0.0 -0.0017862042378680276 0.0
0.0 -0.0017825348477013888 0.0
0.0 -0.0017938440629002477 0.0
0.0 -0.0017916372455283754 0.0
0.0 -0.001778438635204912 0.0
0.0 -0.001787464956297645 0.0
0.0 -0.0018011736943102658 0.0
0.0 -0.001784893911641212 0.0
0.0 -0.0017699736409050996 0.0
0.0 -0.0017944029995040356 0.0
0.0 -0.001815062368042942 0.0
0.0 -0.0017813668616302326 0.0
0.0 -0.0017422205211620123 0.0
0.0 -0.0017802561435348054 0.0
0.0 -0.001865547088292365 0.0
0.0 -0.0018542180330852565 0.0
0.0 -0.0016355907181250034 0.0
0.0 -0.001239061281940064 0.0
0.0 -0.0007963031815419536 0.0
0.0 -0.00043194981734393504 0.0
0.0 -0.00019671342448368944 0.0
0.0 -7.442290869626255e-05 0.0
0.0 -2.2885051553851478e-05 0.0
0.0 -5.45185655932812e-06 0.0
0.0 -8.824907960760099e-07 0.0
0.0 -4.305532604520317e-08 0.0
0.0 2.4341351803935714e-08 0.0
0.0 7.947633029457205e-09 0.0
0.0 9.019781544971069e-10 0.0
0.0 -1.0507963274477234e-10 0.0
0.0 -5.133926611463291e-11 0.0
0.0 -4.896288892150918e-12 0.0
0.0 9.782942324081327e-13 0.0
0.0 2.847588294291863e-13 0.0
0.0 2.213822448021007e-15 0.0
0.0 -8.41525348300185e-15 0.0
0.0 -7.973022213186703e-16 0.0
0.0 1.8318573272670014e-16 0.0
0.0 3.388364923631964e-17 0.0
0.0 -3.293613326135579e-18 0.0
0.0 -1.0459656320857325e-18 0.0
0.0 5.422643932937902e-20 0.0
0.0 2.8155739412011605e-20 0.0
0.0 -1.0100198038445706e-21 0.0
0.0 -7.032047736542776e-22 0.0
0.0 2.71164554118829e-23 0.0
0.0 1.6531951987798582e-23 0.0
0.0 -9.426343398007161e-25 0.0
0.0 -3.588124064811754e-25 0.0
0.0 3.293414859732386e-26 0.0
0.0 6.788152912802489e-27 0.0
0.0 -1.0284313471376094e-27 0.0
0.0 -9.627781250879778e-29 0.0
0.0 2.7436801901247834e-29 0.0
0.0 3.647546541325091e-31 0.0
0.0 -5.973006048276982e-31 0.0
0.0 3.4927539766874603e-32 0.0
0.0 9.512628688415282e-33 0.0
0.0 -1.4670765850355796e-33 0.0
0.0 -6.458839719765423e-35 0.0
0.0 3.4558272784355176e-35 0.0
0.0 -1.9655213290456917e-36 0.0
0.0 -4.724642566583803e-37 0.0
0.0 8.501276133721716e-38 0.0
0.0 -2.1580788414779025e-41 0.0
0.0 -1.5780354844686515e-39 0.0
0.0 1.7666709371769699e-40 0.0
0.0 8.422179609106086e-42 0.0
0.0 -4.1838554569172245e-42 0.0
0.0 3.577025992984728e-43 0.0
0.0 2.952769562735625e-44 0.0
0.0 -1.0039899419353193e-44 0.0
0.0 7.956052578882112e-46 0.0
0.0 6.707801560198758e-47 0.0
0.0 -2.2710216526264867e-47 0.0
0.0 2.0096806516168253e-48 0.0
0.0 9.804706434626652e-50 0.0
0.0 -4.757845435509161e-50 0.0
0.0 5.326823822782198e-51 0.0
0.0 -9.848633823231745e-54 0.0
0.0 -8.525096763253874e-53 0.0
0.0 1.3198236065119652e-53 0.0
0.0 -6.799250024472842e-55 0.0
0.0 -1.0326585306698011e-55 0.0
0.0 2.720614545400673e-56 0.0
0.0 -2.7686250699944167e-57 0.0
0.0 2.7954293673514594e-59 0.0
0.0 3.8265557687703123e-59 0.0
0.0 -6.826212989110451e-60 0.0
0.0 5.685694217208527e-61 0.0
0.0 6.583571844241502e-63 0.0
0.0 -9.717372436622748e-63 0.0
0.0 1.5944035267267347e-63 0.0
0.0 -1.3560767450972763e-64 0.0
0.0 4.500324921877056e-67 0.0
0.0 1.9169766131333514e-66 0.0
0.0 -3.529961917830346e-67 0.0
0.0 3.641412623702285e-68 0.0
0.0 -1.5792983082956583e-69 0.0
0.0 -2.318037784768294e-70 0.0
0.0 6.509011649423703e-71 0.0
0.0 6.509011650154823e-71 0.0
0.0 -2.3180377852565683e-70 0.0
0.0 -1.5792983080341464e-69 0.0
0.0 3.641412623587587e-68 0.0
0.0 -3.52996191779174e-67 0.0
0.0 1.9169766131284814e-66 0.0
0.0 4.5003249209319536e-67 0.0
0.0 -1.3560767450834804e-64 0.0
0.0 1.5944035267188574e-63 0.0
0.0 -9.717372436719071e-63 0.0
0.0 6.583571847625105e-63 0.0
0.0 5.685694216683709e-61 0.0
0.0 -6.826212988567647e-60 0.0
0.0 3.8265557683892893e-59 0.0
0.0 2.795429368667694e-59 0.0
0.0 -2.768625069916765e-57 0.0
0.0 2.7206145452387552e-56 0.0
0.0 -1.0326585305470273e-55 0.0
0.0 -6.799250024759843e-55 0.0
0.0 1.3198236064702158e-53 0.0
0.0 -8.525096762738128e-53 0.0
0.0 -9.848633840218081e-54 0.0
0.0 5.3268238225828784e-51 0.0
0.0 -4.757845435218788e-50 0.0
0.0 9.804706433487256e-50 0.0
0.0 2.0096806515039794e-48 0.0
0.0 -2.2710216524275744e-47 0.0
0.0 6.707801559123317e-47 0.0
0.0 7.956052578445828e-46 0.0
0.0 -1.0039899418216224e-44 0.0
0.0 2.9527695620712574e-44 0.0
0.0 3.5770259927685277e-43 0.0
0.0 -4.183855456318144e-42 0.0
0.0 8.422179606021317e-42 0.0
0.0 1.766670937023818e-40 0.0
0.0 -1.578035484175535e-39 0.0
0.0 -2.1580789406090012e-41 0.0
0.0 8.501276132608563e-38 0.0
0.0 -4.724642565346665e-37 0.0
0.0 -1.9655213291079314e-36 0.0
0.0 3.455827277773323e-35 0.0
0.0 -6.458839716063906e-35 0.0
0.0 -1.4670765848516508e-33 0.0
0.0 9.512628685606498e-33 0.0
0.0 3.492753976893451e-32 0.0
0.0 -5.973006046898084e-31 0.0
0.0 3.6475465353023783e-31 0.0
0.0 2.743680189630185e-29 0.0
0.0 -9.627781246415854e-29 0.0
0.0 -1.0284313470174152e-27 0.0
0.0 6.788152910380219e-27 0.0
0.0 3.2934148596711567e-26 0.0
0.0 -3.588124063681616e-25 0.0
0.0 -9.426343399372643e-25 0.0
0.0 1.6531951982917312e-23 0.0
0.0 2.71164554218263e-23 0.0
0.0 -7.032047734497221e-22 0.0
0.0 -1.0100198042951485e-21 0.0
0.0 2.8155739403504996e-20 0.0
0.0 5.422643934318801e-20 0.0
0.0 -1.0459656317382127e-18 0.0
0.0 -3.2936133262512755e-18 0.0
0.0 3.3883649223039614e-17 0.0
0.0 1.831857327056839e-16 0.0
0.0 -7.973022208901362e-16 0.0
0.0 -8.415253481142105e-15 0.0
0.0 2.213822439034596e-15 0.0
0.0 2.8475882933754446e-13 0.0
0.0 9.782942323526264e-13 0.0
0.0 -4.896288889539314e-12 0.0
0.0 -5.1339266101179456e-11 0.0
0.0 -1.0507963275423099e-10 0.0
0.0 9.019781540726387e-10 0.0
0.0 7.947633027287181e-09 0.0
0.0 2.4341351801512992e-08 0.0
0.0 -4.305532600811483e-08 0.0
0.0 -8.824907957623959e-07 0.0
0.0 -5.451856557829146e-06 0.0
0.0 -2.288505154861076e-05 0.0
0.0 -7.442290868194809e-05 0.0
0.0 -0.00019671342445253537 0.0
0.0 -0.00043194981728979557 0.0
0.0 -0.0007963031814674546 0.0
0.0 -0.001239061281861836 0.0
0.0 -0.0016355907180684844 0.0
0.0 -0.0018542180330667257 0.0
0.0 -0.0018655470883031388 0.0
0.0 -0.0017802561435482122 0.0
0.0 -0.0017422205211606967 0.0
0.0 -0.0017813668616216442 0.0
0.0 -0.0018150623680420449 0.0
0.0 -0.0017944029995096084 0.0
0.0 -0.0017699736409058694 0.0
0.0 -0.001784893911637261 0.0
0.0 -0.0018011736943102075 0.0
0.0 -0.0017874649563005287 0.0
0.0 -0.0017784386352041853 0.0
0.0 -0.0017916372455264258 0.0
0.0 -0.0017938440629015416 0.0
0.0 -0.0017825348477023186 0.0
0.0 -0.001786204237866554 0.0
0.0 -0.0017933377678028214 0.0
0.0 -0.001786184108067069 0.0
0.0 -0.0017848806247738407 0.0
0.0 -0.0017916762290095816 0.0
0.0 -0.0017878222812582644 0.0
0.0 -0.0017850959264313563 0.0
0.0 -0.0017905580967795436 0.0
0.0 -0.001788221882819831 0.0
0.0 -0.0017856392552881926 0.0
0.0 -0.001790035210452843 0.0
0.0 -0.0017880344934966138 0.0
0.0 -0.001786219227834103 0.0
0.0 -0.0017898266729753853 0.0
0.0 -0.0017875879766844761 0.0
0.0 -0.0017868659892543387 0.0
0.0 -0.0017896454093371604 0.0
0.0 -0.001787090639255677 0.0
0.0 -0.0017876318752014192 0.0
0.0 -0.0017892526184758134 0.0
0.0 -0.0017867788280150434 0.0
0.0 -0.0017884296492539093 0.0
0.0 -0.001788539742180876 0.0
0.0 -0.001786911857164421 0.0
0.0 -0.001788966913147754 0.0
0.0 -0.0017876736103919508 0.0
0.0 -0.0017875792076232529 0.0
0.0 -0.0017888843653327676 0.0
0.0 -0.001787133901875099 0.0
0.0 -0.0017884407558831769 0.0
0.0 -0.0017881512337691943 0.0
0.0 -0.001787378864694036 0.0
0.0 -0.0017887881921279112 0.0
0.0 -0.0017873861914186541 0.0
0.0 -0.0017882134030680868 0.0
0.0 -0.0017882388391603178 0.0
0.0 -0.001787436097985614 0.0
0.0 -0.0017886664025712202 0.0
0.0 -0.0017874695377900133 0.0
0.0 -0.0017882336064811875 0.0
0.0 -0.0017881179595642526 0.0
0.0 -0.0017875951784864976 0.0
0.0 -0.0017885558393606002 0.0
0.0 -0.0017874628835346132 0.0
0.0 -0.0017883781435146327 0.0
0.0 -0.0017878707449027486 0.0
0.0 -0.0017878683379978274 0.0
0.0 -0.0017883469998569807 0.0
0.0 -0.0017875340132636267 0.0
0.0 -0.0017884788436143572 0.0
0.0 -0.0017876121728978693 0.0
0.0 -0.0017882284407392543 0.0
0.0 -0.0017879677080351584 0.0
0.0 -0.0017878456145110444 0.0
0.0 -0.0017883061032654168 0.0
0.0 -0.001787605212676358 0.0
0.0 -0.0017884192511968338 0.0
0.0 -0.0017876238094477223 0.0
0.0 -0.0017882853669243682 0.0
0.0 -0.00178784202987722 0.0
0.0 -0.0017880209752829694 0.0
0.0 -0.0017881140044969936 0.0
0.0 -0.0017877751284824323 0.0
0.0 -0.001788308346212609 0.0
0.0 -0.0017876478161009597 0.0
0.0 -0.001788362886301634 0.0
0.0 -0.0017876633107556112 0.0
0.0 -0.00178828659150156 0.0
0.0 -0.0017877869677861986 0.0
0.0 -0.0017881310238352084 0.0
0.0 -0.0017879588896193884 0.0
0.0 -0.0017879569736472818 0.0
0.0 -0.0017881231542694676 0.0
0.0 -0.0017878115986978288 0.0
0.0 -0.0017882434857683473 0.0
0.0 -0.0017877196915452728 0.0
0.0 -0.0017883060120392766 0.0
0.0 -0.0017876855596588184 0.0
0.0 -0.001788314184823445 0.0
0.0 -0.0017876999605914651 0.0
0.0 -0.0017882811225433896 0.0
0.0 -0.0017877476139739315 0.0
0.0 -0.0017882228386238836 0.0
0.0 -0.001787812883445637 0.0
0.0 -0.001788153796929589 0.0
0.0 -0.0017878829876591612 0.0
0.0 -0.0017880848280058578 0.0
0.0 -0.0017879491229550594 0.0
0.0 -0.0017880227755334677 0.0
0.0 -0.0017880062405707714 0.0
0.0 -0.0017879711183703517 0.0
0.0 -0.0017880521772513439 0.0
0.0 -0.0017879309645577556 0.0
0.0 -0.001788086630115483 0.0
0.0 -0.0017879020408635474 0.0
0.0 -0.0017881102465463522 0.0
0.0 -0.0017878834980064639 0.0
0.0 -0.0017881239353966616 0.0
0.0 -0.0017878744812574669 0.0
0.0 -0.0017878744812574571 0.0
0.0 -0.0017881239353966663 0.0
0.0 -0.0017878834980064682 0.0
0.0 -0.00178811024654637 0.0
0.0 -0.0017879020408635472 0.0
0.0 -0.001788086630115478 0.0
0.0 -0.0017879309645577484 0.0
0.0 -0.0017880521772513662 0.0
0.0 -0.0017879711183703467 0.0
0.0 -0.001788006240570765 0.0
0.0 -0.0017880227755334654 0.0
0.0 -0.001787949122955055 0.0
0.0 -0.0017880848280058467 0.0
0.0 -0.0017878829876591725 0.0
0.0 -0.0017881537969295974 0.0
0.0 -0.0017878128834456148 0.0
0.0 -0.0017882228386238892 0.0
0.0 -0.0017877476139739343 0.0
0.0 -0.0017882811225433852 0.0
0.0 -0.001787699960591442 0.0
0.0 -0.001788314184823449 0.0
0.0 -0.0017876855596588076 0.0
0.0 -0.0017883060120392632 0.0
0.0 -0.0017877196915452728 0.0
0.0 -0.00178824348576834 0.0
0.0 -0.0017878115986978518 0.0
0.0 -0.001788123154269462 0.0
0.0 -0.0017879569736472796 0.0
0.0 -0.0017879588896193468 0.0
0.0 -0.0017881310238352147 0.0
0.0 -0.001787786967786188 0.0
0.0 -0.0017882865915015485 0.0
0.0 -0.0017876633107555993 0.0
0.0 -0.0017883628863016464 0.0
0.0 -0.0017876478161009553 0.0
0.0 -0.0017883083462125963 0.0
0.0 -0.0017877751284824444 0.0
0.0 -0.001788114004496969 0.0
0.0 -0.0017880209752829924 0.0
0.0 -0.001787842029877194 0.0
0.0 -0.001788285366924392 0.0
0.0 -0.001787623809447712 0.0
0.0 -0.0017884192511968323 0.0
0.0 -0.0017876052126763822 0.0
0.0 -0.0017883061032653797 0.0