# vtk DataFile Version 2.0
data_154
ASCII
DATASET UNSTRUCTURED_GRID
POINTS 804 float
0.0 0.0 0.0
0.1 0.0 0.0
0.1 20.0 0.0
0.0 20.0 0.0
0.0 0.0 -0.1
0.1 0.0 -0.1
0.1 20.0 -0.1
0.0 20.0 -0.1
0.1 0.09999999999992462 0.0
0.1 0.1999999999998517 0.0
0.1 0.2999999999997818 0.0
0.1 0.399999999999712 0.0
0.1 0.4999999999996377 0.0
0.1 0.5999999999995541 0.0
0.1 0.6999999999994495 0.0
0.1 0.7999999999993355 0.0
0.1 0.8999999999992101 0.0
0.1 0.999999999999102 0.0
0.1 1.099999999999006 0.0
0.1 1.199999999998936 0.0
0.1 1.299999999998867 0.0
0.1 1.399999999998797 0.0
0.1 1.499999999998727 0.0
0.1 1.599999999998657 0.0
0.1 1.699999999998587 0.0
0.1 1.799999999998517 0.0
0.1 1.899999999998447 0.0
0.1 1.999999999998378 0.0
0.1 2.099999999998308 0.0
0.1 2.199999999998238 0.0
0.1 2.299999999998168 0.0
0.1 2.399999999998067 0.0
0.1 2.499999999997942 0.0
0.1 2.599999999997706 0.0
0.1 2.699999999997444 0.0
0.1 2.799999999997153 0.0
0.1 2.899999999996861 0.0
0.1 2.999999999996569 0.0
0.1 3.099999999996277 0.0
0.1 3.199999999995984 0.0
0.1 3.299999999995693 0.0
0.1 3.399999999995401 0.0
0.1 3.499999999995108 0.0
0.1 3.599999999994816 0.0
0.1 3.699999999994525 0.0
0.1 3.799999999994232 0.0
0.1 3.89999999999394 0.0
0.1 3.999999999993648 0.0
0.1 4.099999999993356 0.0
0.1 4.199999999993064 0.0
0.1 4.299999999992772 0.0
0.1 4.399999999992479 0.0
0.1 4.499999999992188 0.0
0.1 4.599999999991895 0.0
0.1 4.699999999991603 0.0
0.1 4.799999999991311 0.0
0.1 4.899999999991019 0.0
0.1 4.999999999990727 0.0
0.1 5.099999999990436 0.0
0.1 5.199999999990144 0.0
0.1 5.299999999989851 0.0
0.1 5.399999999989559 0.0
0.1 5.499999999989267 0.0
0.1 5.599999999988975 0.0
0.1 5.699999999988683 0.0
0.1 5.799999999988391 0.0
0.1 5.899999999988099 0.0
0.1 5.999999999987806 0.0
0.1 6.099999999987515 0.0
0.1 6.199999999987222 0.0
0.1 6.299999999986929 0.0
0.1 6.399999999986638 0.0
0.1 6.499999999986345 0.0
0.1 6.599999999986054 0.0
0.1 6.699999999985762 0.0
0.1 6.79999999998547 0.0
0.1 6.899999999985177 0.0
0.1 6.999999999984885 0.0
0.1 7.099999999984593 0.0
0.1 7.199999999984302 0.0
0.1 7.299999999984009 0.0
0.1 7.399999999983717 0.0
0.1 7.499999999983426 0.0
0.1 7.599999999983132 0.0
0.1 7.699999999982841 0.0
0.1 7.799999999982549 0.0
0.1 7.899999999982256 0.0
0.1 7.999999999982034 0.0
0.1 8.099999999981964 0.0
0.1 8.199999999982062 0.0
0.1 8.299999999982214 0.0
0.1 8.399999999982366 0.0
0.1 8.499999999982517 0.0
0.1 8.59999999998267 0.0
0.1 8.699999999982822 0.0
0.1 8.799999999982973 0.0
0.1 8.899999999983125 0.0
0.1 8.999999999983277 0.0
0.1 9.09999999998343 0.0
0.1 9.19999999998358 0.0
0.1 9.299999999983733 0.0
0.1 9.399999999983885 0.0
0.1 9.499999999984038 0.0
0.1 9.599999999984188 0.0
0.1 9.69999999998434 0.0
0.1 9.799999999984493 0.0
0.1 9.899999999984646 0.0
0.1 9.999999999984798 0.0
0.1 10.09999999998495 0.0
0.1 10.1999999999851 0.0
0.1 10.29999999998525 0.0
0.1 10.39999999998541 0.0
0.1 10.49999999998556 0.0
0.1 10.59999999998571 0.0
0.1 10.69999999998586 0.0
0.1 10.79999999998601 0.0
0.1 10.89999999998616 0.0
0.1 10.99999999998632 0.0
0.1 11.09999999998647 0.0
0.1 11.19999999998662 0.0
0.1 11.29999999998677 0.0
0.1 11.39999999998693 0.0
0.1 11.49999999998708 0.0
0.1 11.59999999998723 0.0
0.1 11.69999999998738 0.0
0.1 11.79999999998754 0.0
0.1 11.89999999998769 0.0
0.1 11.99999999998784 0.0
0.1 12.09999999998799 0.0
0.1 12.19999999998814 0.0
0.1 12.2999999999883 0.0
0.1 12.39999999998845 0.0
0.1 12.4999999999886 0.0
0.1 12.59999999998875 0.0
0.1 12.6999999999889 0.0
0.1 12.79999999998905 0.0
0.1 12.89999999998921 0.0
0.1 12.99999999998936 0.0
0.1 13.09999999998951 0.0
0.1 13.19999999998966 0.0
0.1 13.29999999998982 0.0
0.1 13.39999999998997 0.0
0.1 13.49999999999012 0.0
0.1 13.59999999999027 0.0
0.1 13.69999999999042 0.0
0.1 13.79999999999057 0.0
0.1 13.89999999999073 0.0
0.1 13.99999999999088 0.0
0.1 14.09999999999103 0.0
0.1 14.19999999999118 0.0
0.1 14.29999999999134 0.0
0.1 14.39999999999149 0.0
0.1 14.49999999999164 0.0
0.1 14.59999999999179 0.0
0.1 14.69999999999194 0.0
0.1 14.7999999999921 0.0
0.1 14.89999999999225 0.0
0.1 14.9999999999924 0.0
0.1 15.09999999999255 0.0
0.1 15.1999999999927 0.0
0.1 15.29999999999285 0.0
0.1 15.39999999999301 0.0
0.1 15.49999999999316 0.0
0.1 15.59999999999331 0.0
0.1 15.69999999999346 0.0
0.1 15.79999999999362 0.0
0.1 15.89999999999377 0.0
0.1 15.99999999999392 0.0
0.1 16.09999999999407 0.0
0.1 16.19999999999422 0.0
0.1 16.29999999999437 0.0
0.1 16.39999999999453 0.0
0.1 16.49999999999468 0.0
0.1 16.59999999999483 0.0
0.1 16.69999999999498 0.0
0.1 16.79999999999514 0.0
0.1 16.89999999999528 0.0
0.1 16.99999999999544 0.0
0.1 17.09999999999559 0.0
0.1 17.19999999999574 0.0
0.1 17.29999999999589 0.0
0.1 17.39999999999605 0.0
0.1 17.4999999999962 0.0
0.1 17.59999999999635 0.0
0.1 17.6999999999965 0.0
0.1 17.79999999999665 0.0
0.1 17.89999999999681 0.0
0.1 17.99999999999696 0.0
0.1 18.09999999999711 0.0
0.1 18.19999999999726 0.0
0.1 18.29999999999742 0.0
0.1 18.39999999999757 0.0
0.1 18.49999999999772 0.0
0.1 18.59999999999787 0.0
0.1 18.69999999999802 0.0
0.1 18.79999999999818 0.0
0.1 18.89999999999833 0.0
0.1 18.99999999999848 0.0
0.1 19.09999999999863 0.0
0.1 19.19999999999878 0.0
0.1 19.29999999999894 0.0
0.1 19.39999999999909 0.0
0.1 19.49999999999924 0.0
0.1 19.59999999999939 0.0
0.1 19.69999999999955 0.0
0.1 19.7999999999997 0.0
0.1 19.89999999999985 0.0
0.0 19.9 0.0
0.0 19.8 0.0
0.0 19.7 0.0
0.0 19.6 0.0
0.0 19.5 0.0
0.0 19.4 0.0
0.0 19.3 0.0
0.0 19.2 0.0
0.0 19.1 0.0
0.0 19.0 0.0
0.0 18.9 0.0
0.0 18.8 0.0
0.0 18.7 0.0
0.0 18.6 0.0
0.0 18.5 0.0
0.0 18.4 0.0
0.0 18.3 0.0
0.0 18.2 0.0
0.0 18.1 0.0
0.0 18.0 0.0
0.0 17.9 0.0
0.0 17.8 0.0
0.0 17.7 0.0
0.0 17.6 0.0
0.0 17.5 0.0
0.0 17.4 0.0
0.0 17.3 0.0
0.0 17.2 0.0
0.0 17.09999999999999 0.0
0.0 17.0 0.0
0.0 16.9 0.0
0.0 16.8 0.0
0.0 16.7 0.0
0.0 16.59999999999999 0.0
0.0 16.49999999999999 0.0
0.0 16.4 0.0
0.0 16.29999999999999 0.0
0.0 16.2 0.0
0.0 16.09999999999999 0.0
0.0 15.99999999999999 0.0
0.0 15.89999999999999 0.0
0.0 15.79999999999999 0.0
0.0 15.69999999999999 0.0
0.0 15.59999999999999 0.0
0.0 15.49999999999999 0.0
0.0 15.39999999999999 0.0
0.0 15.29999999999999 0.0
0.0 15.19999999999999 0.0
0.0 15.09999999999999 0.0
0.0 14.99999999999999 0.0
0.0 14.89999999999999 0.0
0.0 14.79999999999999 0.0
0.0 14.69999999999999 0.0
0.0 14.59999999999999 0.0
0.0 14.49999999999999 0.0
0.0 14.39999999999999 0.0
0.0 14.29999999999999 0.0
0.0 14.19999999999999 0.0
0.0 14.09999999999999 0.0
0.0 13.99999999999999 0.0
0.0 13.89999999999999 0.0
0.0 13.79999999999999 0.0
0.0 13.69999999999999 0.0
0.0 13.59999999999999 0.0
0.0 13.49999999999999 0.0
0.0 13.39999999999999 0.0
0.0 13.29999999999999 0.0
0.0 13.19999999999999 0.0
0.0 13.09999999999999 0.0
0.0 12.99999999999999 0.0
0.0 12.89999999999999 0.0
0.0 12.79999999999999 0.0
0.0 12.69999999999999 0.0
0.0 12.59999999999999 0.0
0.0 12.49999999999999 0.0
0.0 12.39999999999999 0.0
0.0 12.29999999999999 0.0
0.0 12.19999999999999 0.0
0.0 12.09999999999999 0.0
0.0 11.99999999999999 0.0
0.0 11.89999999999999 0.0
0.0 11.79999999999999 0.0
0.0 11.69999999999999 0.0
0.0 11.59999999999999 0.0
0.0 11.49999999999999 0.0
0.0 11.39999999999999 0.0
0.0 11.29999999999999 0.0
0.0 11.19999999999999 0.0
0.0 11.09999999999999 0.0
0.0 10.99999999999999 0.0
0.0 10.89999999999999 0.0
0.0 10.79999999999999 0.0
0.0 10.69999999999999 0.0
0.0 10.59999999999999 0.0
0.0 10.49999999999999 0.0
0.0 10.39999999999999 0.0
0.0 10.29999999999999 0.0
0.0 10.19999999999999 0.0
0.0 10.09999999999999 0.0
0.0 9.999999999999993 0.0
0.0 9.899999999999993 0.0
0.0 9.799999999999994 0.0
0.0 9.699999999999992 0.0
0.0 9.599999999999993 0.0
0.0 9.499999999999993 0.0
0.0 9.399999999999993 0.0
0.0 9.299999999999995 0.0
0.0 9.199999999999996 0.0
0.0 9.099999999999994 0.0
0.0 8.999999999999995 0.0
0.0 8.899999999999995 0.0
0.0 8.799999999999994 0.0
0.0 8.699999999999994 0.0
0.0 8.599999999999994 0.0
0.0 8.499999999999995 0.0
0.0 8.399999999999995 0.0
0.0 8.299999999999994 0.0
0.0 8.199999999999994 0.0
0.0 8.099999999999994 0.0
0.0 7.999999999999993 0.0
0.0 7.899999999999995 0.0
0.0 7.799999999999995 0.0
0.0 7.699999999999996 0.0
0.0 7.599999999999996 0.0
0.0 7.499999999999996 0.0
0.0 7.399999999999995 0.0
0.0 7.299999999999995 0.0
0.0 7.199999999999996 0.0
0.0 7.099999999999994 0.0
0.0 6.999999999999995 0.0
0.0 6.899999999999995 0.0
0.0 6.799999999999995 0.0
0.0 6.699999999999996 0.0
0.0 6.599999999999994 0.0
0.0 6.499999999999995 0.0
0.0 6.399999999999997 0.0
0.0 6.299999999999997 0.0
0.0 6.199999999999996 0.0
0.0 6.099999999999996 0.0
0.0 5.999999999999996 0.0
0.0 5.899999999999997 0.0
0.0 5.799999999999997 0.0
0.0 5.699999999999996 0.0
0.0 5.599999999999996 0.0
0.0 5.499999999999996 0.0
0.0 5.399999999999995 0.0
0.0 5.299999999999995 0.0
0.0 5.199999999999996 0.0
0.0 5.099999999999996 0.0
0.0 4.999999999999998 0.0
0.0 4.899999999999999 0.0
0.0 4.799999999999997 0.0
0.0 4.699999999999998 0.0
0.0 4.599999999999998 0.0
0.0 4.499999999999996 0.0
0.0 4.399999999999997 0.0
0.0 4.299999999999997 0.0
0.0 4.199999999999998 0.0
0.0 4.099999999999998 0.0
0.0 3.999999999999996 0.0
0.0 3.899999999999999 0.0
0.0 3.799999999999997 0.0
0.0 3.699999999999996 0.0
0.0 3.599999999999998 0.0
0.0 3.5 0.0
0.0 3.399999999999999 0.0
0.0 3.299999999999997 0.0
0.0 3.199999999999999 0.0
0.0 3.099999999999998 0.0
0.0 3.0 0.0
0.0 2.899999999999999 0.0
0.0 2.799999999999997 0.0
0.0 2.699999999999999 0.0
0.0 2.599999999999998 0.0
0.0 2.499999999999996 0.0
0.0 2.399999999999999 0.0
0.0 2.299999999999997 0.0
0.0 2.199999999999999 0.0
0.0 2.100000000000001 0.0
0.0 2.0 0.0
0.0 1.899999999999999 0.0
0.0 1.800000000000001 0.0
0.0 1.699999999999999 0.0
0.0 1.599999999999998 0.0
0.0 1.5 0.0
0.0 1.399999999999999 0.0
0.0 1.299999999999997 0.0
0.0 1.199999999999999 0.0
0.0 1.099999999999998 0.0
0.0 1.0 0.0
0.0 0.8999999999999986 0.0
0.0 0.8000000000000007 0.0
0.0 0.6999999999999993 0.0
0.0 0.6000000000000014 0.0
0.0 0.5 0.0
0.0 0.3999999999999986 0.0
0.0 0.3000000000000007 0.0
0.0 0.1999999999999993 0.0
[...]
POINT_DATA 804
VECTORS displacement double
0.0 0.0 0.0
0.0 0.0 0.0
0.0 -0.0017879781325908018 0.0
0.0 -0.0017879781325907695 0.0
0.0 0.0 0.0
0.0 0.0 0.0
0.0 -0.0017879781325907873 0.0
0.0 -0.0017879781325907892 0.0
0.0 1.1007452278199305e-74 0.0
0.0 -1.1600012664458217e-73 0.0
0.0 8.424879277172812e-73 0.0
0.0 -3.397587984631209e-72 0.0
0.0 -1.3501357879504761e-71 0.0
0.0 4.2538475291015594e-70 0.0
0.0 -4.756170038454525e-69 0.0
0.0 3.3097951186373896e-68 0.0
0.0 -9.999217197884494e-68 0.0
0.0 -1.0136127011271678e-66 0.0
0.0 1.9821336815399137e-65 0.0
0.0 -1.7896108530210833e-64 0.0
0.0 8.571385417872646e-64 0.0
0.0 1.726522721066654e-63 0.0
0.0 -7.86406744809291e-62 0.0
0.0 8.127676628335206e-61 0.0
0.0 -4.1960506551008467e-60 0.0
0.0 -5.942174092163116e-60 0.0
0.0 3.432117732846214e-58 0.0
0.0 -3.400040485969385e-57 0.0
0.0 1.4551485986187741e-56 0.0
0.0 6.465922125170256e-56 0.0
0.0 -1.6079460613091732e-54 0.0
0.0 1.234145553666737e-53 0.0
0.0 -2.214494300417961e-53 0.0
0.0 -5.567779116324595e-52 0.0
0.0 6.728185560605666e-51 0.0
0.0 -2.880038173110392e-50 0.0
0.0 -1.4818368358415383e-49 0.0
0.0 3.07923503391206e-48 0.0
0.0 -1.7963412227568055e-47 0.0
0.0 -3.132170241218438e-47 0.0
0.0 1.3253576221799557e-45 0.0
0.0 -8.836121039589123e-45 0.0
0.0 -8.137299606053569e-45 0.0
0.0 5.723917048872918e-43 0.0
0.0 -3.742618410396003e-42 0.0
0.0 -5.853002823569435e-42 0.0
0.0 2.504939684653214e-40 0.0
0.0 -1.3331501329490128e-39 0.0
0.0 -5.303480508182403e-39 0.0
0.0 1.0515202043004033e-37 0.0
0.0 -3.304844518223187e-37 0.0
0.0 -3.7610018491109835e-36 0.0
0.0 3.754689854201537e-35 0.0
0.0 5.7116595231053775e-36 0.0
0.0 -1.9654146183209476e-33 0.0
0.0 8.625051887745655e-33 0.0
0.0 6.229378399657762e-32 0.0
0.0 -6.77280014236592e-31 0.0
0.0 -5.562442943354381e-31 0.0
0.0 3.47435205699761e-29 0.0
0.0 -8.181260177706507e-29 0.0
0.0 -1.4082063659528926e-27 0.0
0.0 7.365414335933412e-27 0.0
0.0 4.8157408719914476e-26 0.0
0.0 -4.249321720570637e-25 0.0
0.0 -1.457083066721612e-24 0.0
0.0 2.046807167626345e-23 0.0
0.0 4.273992925119506e-23 0.0
0.0 -8.930642955772515e-22 0.0
0.0 -1.487682932183164e-21 0.0
0.0 3.639054977869591e-20 0.0
0.0 7.219795337018506e-20 0.0
0.0 -1.3768069518721444e-18 0.0
0.0 -4.202964431080291e-18 0.0
0.0 4.590480576901725e-17 0.0
0.0 2.3475523885323217e-16 0.0
0.0 -1.152762730141918e-15 0.0
0.0 -1.1084704216661868e-14 0.0
0.0 7.761374855113248e-15 0.0
0.0 3.937730312601772e-13 0.0
0.0 1.1728161402607499e-12 0.0
0.0 -7.666521189562885e-12 0.0
0.0 -6.94488550965124e-11 0.0
0.0 -1.0782756586980961e-10 0.0
0.0 1.4135380651588853e-09 0.0
0.0 1.0909126528109448e-08 0.0
0.0 2.8720512135720734e-08 0.0
0.0 -8.96376502311055e-08 0.0
0.0 -1.3125371383429494e-06 0.0
0.0 -7.584183540808712e-06 0.0
0.0 -3.0508694963252676e-05 0.0
0.0 -9.563827558525452e-05 0.0
0.0 -0.00024388709860827506 0.0
0.0 -0.0005160216656914239 0.0
0.0 -0.0009144760525273133 0.0
0.0 -0.0013643392307570751 0.0
0.0 -0.0017245954697741508 0.0
0.0 -0.0018787690902630318 0.0
0.0 -0.0018421141574449461 0.0
0.0 -0.0017573519562137417 0.0
0.0 -0.001748652248299735 0.0
0.0 -0.0017983948941343118 0.0
0.0 -0.0018138203949747504 0.0
0.0 -0.0017821622963927505 0.0
0.0 -0.0017708648426391028 0.0
0.0 -0.001794112984915739 0.0
0.0 -0.0017991232349621456 0.0
0.0 -0.0017807520384084633 0.0
0.0 -0.0017821164226543575 0.0
0.0 -0.0017957905176606277 0.0
0.0 -0.0017891370000261237 0.0
0.0 -0.0017814353387496846 0.0
0.0 -0.0017907925117750109 0.0
0.0 -0.001791612489477443 0.0
0.0 -0.0017834637981321057 0.0
0.0 -0.0017883091126326904 0.0
0.0 -0.0017915591383671637 0.0
0.0 -0.0017850127118344149 0.0
0.0 -0.001787591120914977 0.0
0.0 -0.0017909346167560387 0.0
0.0 -0.001785757291515214 0.0
0.0 -0.001787707589118973 0.0
0.0 -0.0017902794156525 0.0
0.0 -0.0017860186300698712 0.0
0.0 -0.0017881923455986182 0.0
0.0 -0.0017895906154044494 0.0
0.0 -0.0017861507814335962 0.0
0.0 -0.0017888023116824526 0.0
0.0 -0.0017887695867153553 0.0
0.0 -0.0017864599992554826 0.0
0.0 -0.0017892895051643157 0.0
0.0 -0.0017878432426408747 0.0
0.0 -0.001787141763554418 0.0
0.0 -0.0017893422419606342 0.0
0.0 -0.0017870854285872027 0.0
0.0 -0.0017881152565910948 0.0
0.0 -0.0017887565146006991 0.0
0.0 -0.0017869397357498844 0.0
0.0 -0.001788900412615939 0.0
0.0 -0.0017877693540812654 0.0
0.0 -0.0017876100950808538 0.0
0.0 -0.0017888753484603644 0.0
0.0 -0.0017871528241955126 0.0
0.0 -0.0017885670731394693 0.0
0.0 -0.0017880110471038624 0.0
0.0 -0.0017875599634457244 0.0
0.0 -0.0017887690368389945 0.0
0.0 -0.0017872986182329836 0.0
0.0 -0.0017884982254403495 0.0
0.0 -0.0017879510094439982 0.0
0.0 -0.0017877175492243286 0.0
0.0 -0.0017886033007715148 0.0
0.0 -0.0017873742435380365 0.0
0.0 -0.0017885728534087545 0.0
0.0 -0.0017877297476982191 0.0
0.0 -0.0017880208470133715 0.0
0.0 -0.0017883179078273237 0.0
0.0 -0.0017875425977513957 0.0
0.0 -0.0017885872288037291 0.0
0.0 -0.001787519721433381 0.0
0.0 -0.0017883848664056907 0.0
0.0 -0.0017878826290215564 0.0
0.0 -0.0017879484250638857 0.0
0.0 -0.001788304457952739 0.0
0.0 -0.0017876137392434236 0.0
0.0 -0.0017885052500391727 0.0
0.0 -0.00178756460119367 0.0
0.0 -0.0017884114461422524 0.0
0.0 -0.001787772580903353 0.0
0.0 -0.0017881299482480845 0.0
0.0 -0.0017880832276073594 0.0
0.0 -0.0017878314040062056 0.0
0.0 -0.0017883363815150955 0.0
0.0 -0.0017876463626240345 0.0
0.0 -0.0017884417891150715 0.0
0.0 -0.0017876218665018608 0.0
0.0 -0.0017883923943373427 0.0
0.0 -0.001787732308234854 0.0
0.0 -0.00178823706813838 0.0
0.0 -0.001787915317106915 0.0
0.0 -0.0017880428139208384 0.0
0.0 -0.0017881064493519795 0.0
0.0 -0.001787866342785972 0.0
0.0 -0.001788259876316582 0.0
0.0 -0.0017877412454718057 0.0
0.0 -0.0017883541661089675 0.0
0.0 -0.0017876779022914613 0.0
0.0 -0.0017883882459089747 0.0
0.0 -0.0017876701218510988 0.0
0.0 -0.0017883734934923347 0.0
0.0 -0.0017877032649833398 0.0
0.0 -0.001788326153281696 0.0
0.0 -0.001787760813004982 0.0
0.0 -0.0017882620229510693 0.0
0.0 -0.001787828369972072 0.0
0.0 -0.0017881936899651254 0.0
0.0 -0.0017878953396468066 0.0
0.0 -0.001788129748677906 0.0
0.0 -0.0017879550169270135 0.0
0.0 -0.0017880752081741286 0.0
0.0 -0.0017880038500741019 0.0
0.0 -0.0017880324195533584 0.0
0.0 -0.0017880404340451235 0.0
0.0 -0.00178800208037112 0.0
0.0 -0.0017880645650029962 0.0
0.0 -0.0017879840848272729 0.0
0.0 -0.0017880765061012353 0.0
0.0 -0.0017880765061012267 0.0
0.0 -0.0017879840848272755 0.0
0.0 -0.001788064565003001 0.0
0.0 -0.0017880020803711203 0.0
0.0 -0.0017880404340451354 0.0
0.0 -0.0017880324195533404 0.0
0.0 -0.001788003850074106 0.0
0.0 -0.0017880752081741128 0.0
0.0 -0.0017879550169270127 0.0
0.0 -0.0017881297486779064 0.0
0.0 -0.0017878953396468086 0.0
0.0 -0.001788193689965115 0.0
0.0 -0.0017878283699720666 0.0
0.0 -0.00178826202295108 0.0
0.0 -0.0017877608130049858 0.0
0.0 -0.001788326153281677 0.0
0.0 -0.001787703264983343 0.0
0.0 -0.0017883734934923516 0.0
0.0 -0.0017876701218510925 0.0
0.0 -0.001788388245908957 0.0
0.0 -0.0017876779022914535 0.0
0.0 -0.0017883541661089608 0.0
0.0 -0.001787741245471806 0.0
0.0 -0.001788259876316566 0.0
0.0 -0.001787866342785976 0.0
0.0 -0.0017881064493519832 0.0
0.0 -0.0017880428139208555 0.0
0.0 -0.0017879153171068936 0.0
0.0 -0.0017882370681383676 0.0
0.0 -0.001787732308234837 0.0
0.0 -0.0017883923943373438 0.0
0.0 -0.0017876218665018558 0.0
0.0 -0.0017884417891150797 0.0
0.0 -0.0017876463626240507 0.0
0.0 -0.0017883363815150806 0.0
0.0 -0.0017878314040062223 0.0
0.0 -0.0017880832276073457 0.0
0.0 -0.0017881299482481192 0.0
0.0 -0.0017877725809033287 0.0
0.0 -0.001788411446142276 0.0
0.0 -0.0017875646011936699 0.0
0.0 -0.001788505250039175 0.0
0.0 -0.0017876137392434396 0.0
0.0 -0.0017883044579527123 0.0
0.0 -0.001787948425063909 0.0
0.0 -0.0017878826290214983 0.0
0.0 -0.0017883848664057328 0.0
0.0 -0.0017875197214333662 0.0
0.0 -0.0017885872288037202 0.0
0.0 -0.0017875425977514387 0.0
0.0 -0.0017883179078272532 0.0
0.0 -0.0017880208470134312 0.0
0.0 -0.0017877297476981595 0.0
0.0 -0.0017885728534088009 0.0
0.0 -0.0017873742435380417 0.0
0.0 -0.0017886033007714927 0.0
0.0 -0.0017877175492243993 0.0
0.0 -0.0017879510094438958 0.0
0.0 -0.001788498225440422 0.0
0.0 -0.0017872986182329584 0.0
0.0 -0.0017887690368389563 0.0
0.0 -0.0017875599634458088 0.0
0.0 -0.0017880110471037438 0.0
0.0 -0.0017885670731395556 0.0
0.0 -0.001787152824195484 0.0
0.0 -0.0017888753484603152 0.0
0.0 -0.001787610095081 0.0
0.0 -0.0017877693540810972 0.0
0.0 -0.0017889004126160411 0.0
0.0 -0.0017869397357499065 0.0
0.0 -0.0017887565146005424 0.0
0.0 -0.0017881152565913043 0.0
0.0 -0.001787085428587046 0.0
0.0 -0.0017893422419606186 0.0
0.0 -0.0017871417635546248 0.0
0.0 -0.001787843242640583 0.0
0.0 -0.0017892895051644993 0.0
0.0 -0.0017864599992555583 0.0
0.0 -0.0017887695867150602 0.0
0.0 -0.0017888023116827876 0.0
0.0 -0.0017861507814335169 0.0
0.0 -0.0017895906154041595 0.0
0.0 -0.0017881923455990922 0.0
0.0 -0.0017860186300696116 0.0
0.0 -0.0017902794156522686 0.0
0.0 -0.0017877075891195688 0.0
0.0 -0.0017857572915148036 0.0
0.0 -0.0017909346167557705 0.0
0.0 -0.0017875911209157842 0.0
0.0 -0.0017850127118339235 0.0
0.0 -0.0017915591383666904 0.0
0.0 -0.0017883091126337574 0.0
0.0 -0.0017834637981317244 0.0
0.0 -0.0017916124894764298 0.0
0.0 -0.001790792511776281 0.0
0.0 -0.001781435338750021 0.0
0.0 -0.0017891370000242745 0.0
0.0 -0.0017957905176613901 0.0
0.0 -0.0017821164226563529 0.0
0.0 -0.0017807520384064879 0.0
0.0 -0.0017991232349602946 0.0
0.0 -0.0017941129849190559 0.0
0.0 -0.0017708648426409102 0.0
0.0 -0.0017821622963878092 0.0
0.0 -0.0018138203949722798 0.0
0.0 -0.0017983948941414413 0.0
0.0 -0.0017486522483052564 0.0
0.0 -0.0017573519562044517 0.0
0.0 -0.0018421141574304102 0.0
0.0 -0.0018787690902702125 0.0
0.0 -0.0017245954698192506 0.0
0.0 -0.0013643392308302076 0.0
0.0 -0.000914476052603497 0.0
0.0 -0.0005160216657504772 0.0
0.0 -0.00024388709864419267 0.0
0.0 -9.563827560274823e-05 0.0
0.0 -3.050869497008264e-05 0.0
0.0 -7.584183542903631e-06 0.0
0.0 -1.3125371388159445e-06 0.0
0.0 -8.963765029436778e-08 0.0
0.0 2.872051213733818e-08 0.0
0.0 1.0909126531137354e-08 0.0
0.0 1.4135380658187597e-09 0.0
0.0 -1.0782756584247349e-10 0.0
0.0 -6.944885511500591e-11 0.0
0.0 -7.666521193611884e-12 0.0
0.0 1.1728161402746492e-12 0.0
0.0 3.9377303139210046e-13 0.0
0.0 7.761374869735348e-15 0.0
0.0 -1.1084704219191874e-14 0.0
0.0 -1.1527627307850934e-15 0.0
0.0 2.3475523887914063e-16 0.0
0.0 4.5904805788385254e-17 0.0
0.0 -4.202964430849262e-18 0.0
0.0 -1.3768069523742168e-18 0.0
0.0 7.219795335055979e-20 0.0
0.0 3.639054979099188e-20 0.0
0.0 -1.48768293159348e-21 0.0
0.0 -8.930642958736234e-22 0.0
0.0 4.273992923960282e-23 0.0
0.0 2.046807168330748e-23 0.0
0.0 -1.4570830666186226e-24 0.0
0.0 -4.249321722172216e-25 0.0
0.0 4.815740872347605e-26 0.0
0.0 7.365414339227004e-27 0.0
0.0 -1.4082063661880697e-27 0.0
0.0 -8.181260183280372e-29 0.0
0.0 3.474352057811734e-29 0.0
0.0 -5.562442937433381e-31 0.0
0.0 -6.772800144391895e-31 0.0
0.0 6.229378400016128e-32 0.0
0.0 8.62505189135354e-33 0.0
0.0 -1.9654146186914535e-33 0.0
0.0 5.7116594885892406e-36 0.0
0.0 3.754689855197873e-35 0.0
0.0 -3.761001849440699e-36 0.0
0.0 -3.30484451967401e-37 0.0
0.0 1.0515202045089892e-37 0.0
0.0 -5.3034805079159195e-39 0.0
0.0 -1.3331501333304382e-39 0.0
0.0 2.504939685033979e-40 0.0
0.0 -5.853002821573634e-42 0.0
0.0 -3.742618411274288e-42 0.0
0.0 5.723917049661422e-43 0.0
0.0 -8.137299602718311e-45 0.0
0.0 -8.83612104110833e-45 0.0
0.0 1.3253576223031409e-45 0.0
0.0 -3.132170240164362e-47 0.0
0.0 -1.7963412231502308e-47 0.0
0.0 3.079235034423282e-48 0.0
0.0 -1.4818368362211717e-49 0.0
0.0 -2.880038172880907e-50 0.0
0.0 6.728185560095936e-51 0.0
0.0 -5.56777911470141e-52 0.0
0.0 -2.214494304160949e-53 0.0
0.0 1.2341455543601417e-53 0.0
0.0 -1.607946062462223e-54 0.0
0.0 6.465922144012391e-56 0.0
0.0 1.4551485954332208e-56 0.0
0.0 -3.400040480395791e-57 0.0
0.0 3.4321177230004085e-58 0.0
0.0 -5.942173919787035e-60 0.0
0.0 -4.196050684902625e-60 0.0
0.0 8.127676679533067e-61 0.0
0.0 -7.864067536269736e-62 0.0
0.0 1.7265228744174505e-63 0.0
0.0 8.571385147386655e-64 0.0
0.0 -1.789610804520049e-64 0.0
0.0 1.9821335930032867e-65 0.0
0.0 -1.013612536435573e-66 0.0
0.0 -9.9992203206397e-68 0.0
0.0 3.3097957217970815e-68 0.0
0.0 -4.756171223088481e-69 0.0
0.0 4.253849888754952e-70 0.0
0.0 -1.3501405401051915e-71 0.0
0.0 -3.397578338213795e-72 0.0
0.0 8.4248595975119e-73 0.0
0.0 -1.1599972473306035e-73 0.0
0.0 1.1007373299917318e-74 0.0
0.0 1.1007373312752253e-74 0.0
0.0 -1.1599972483541234e-73 0.0
0.0 8.424859604930209e-73 0.0
0.0 -3.397578343205906e-72 0.0
0.0 -1.3501405369809884e-71 0.0
0.0 4.2538498869524004e-70 0.0
0.0 -4.756171222158622e-69 0.0
0.0 3.3097957214098925e-68 0.0
0.0 -9.999220319952126e-68 0.0
0.0 -1.0136125363346088e-66 0.0
0.0 1.98213359283641e-65 0.0
0.0 -1.7896108043623445e-64 0.0
0.0 8.571385146374805e-64 0.0
0.0 1.7265228747182318e-63 0.0
0.0 -7.8640675360066e-62 0.0
0.0 8.127676679021885e-61 0.0
0.0 -4.196050684459127e-60 0.0
0.0 -5.94217392177682e-60 0.0
0.0 3.4321177229588755e-58 0.0
0.0 -3.400040480242139e-57 0.0
0.0 1.4551485953114574e-56 0.0
0.0 6.465922144192747e-56 0.0
0.0 -1.6079460623981605e-54 0.0
0.0 1.2341455542869688e-53 0.0
0.0 -2.214494303931252e-53 0.0
0.0 -5.567779114345723e-52 0.0
0.0 6.728185559497427e-51 0.0
0.0 -2.880038172493246e-50 0.0
0.0 -1.4818368361832815e-49 0.0
0.0 3.079235034100282e-48 0.0
0.0 -1.796341222859942e-47 0.0
0.0 -3.132170240655818e-47 0.0
0.0 1.3253576221493928e-45 0.0
0.0 -8.836121039423682e-45 0.0
0.0 -8.137299606944235e-45 0.0
0.0 5.7239170489204986e-43 0.0
0.0 -3.7426184104213556e-42 0.0
0.0 -5.853002823434938e-42 0.0
0.0 2.504939684646166e-40 0.0
0.0 -1.3331501329453178e-39 0.0
0.0 -5.303480508201642e-39 0.0
0.0 1.0515202043014177e-37 0.0
0.0 -3.304844518228434e-37 0.0
0.0 -3.761001849108329e-36 0.0
0.0 3.7546898542001206e-35 0.0
0.0 5.7116595231758376e-36 0.0
0.0 -1.965414618321238e-33 0.0
0.0 8.625051887747095e-33 0.0
0.0 6.229378399656754e-32 0.0
0.0 -6.772800142365232e-31 0.0
0.0 -5.5624429433586306e-31 0.0
0.0 3.4743520569978126e-29 0.0
0.0 -8.181260177707855e-29 0.0
0.0 -1.4082063659528422e-27 0.0
0.0 7.365414335933135e-27 0.0
0.0 4.8157408719914694e-26 0.0
0.0 -4.249321720570659e-25 0.0
0.0 -1.4570830667214925e-24 0.0
0.0 2.0468071676263005e-23 0.0
0.0 4.273992925119471e-23 0.0
0.0 -8.930642955772506e-22 0.0
0.0 -1.4876829321831742e-21 0.0
0.0 3.639054977869579e-20 0.0
0.0 7.219795337018585e-20 0.0
0.0 -1.37680695187213e-18 0.0
0.0 -4.2029644310801974e-18 0.0
0.0 4.590480576901592e-17 0.0
0.0 2.347552388532394e-16 0.0
0.0 -1.1527627301419491e-15 0.0
0.0 -1.1084704216661686e-14 0.0
0.0 7.761374855112182e-15 0.0
0.0 3.9377303126017217e-13 0.0
0.0 1.1728161402607323e-12 0.0
0.0 -7.666521189563035e-12 0.0
0.0 -6.944885509651244e-11 0.0
0.0 -1.07827565869814e-10 0.0
0.0 1.4135380651589004e-09 0.0
0.0 1.0909126528109454e-08 0.0
0.0 2.872051213572079e-08 0.0
0.0 -8.963765023110223e-08 0.0
0.0 -1.312537138342934e-06 0.0
0.0 -7.5841835408086685e-06 0.0
0.0 -3.050869496325271e-05 0.0
0.0 -9.563827558525467e-05 0.0
0.0 -0.00024388709860827552 0.0
0.0 -0.0005160216656914235 0.0
0.0 -0.0009144760525273143 0.0
0.0 -0.0013643392307570745 0.0
0.0 -0.0017245954697741477 0.0
0.0 -0.0018787690902630336 0.0
0.0 -0.0018421141574449494 0.0
0.0 -0.001757351956213745 0.0
0.0 -0.0017486522482997276 0.0
0.0 -0.0017983948941343085 0.0
0.0 -0.001813820394974752 0.0
0.0 -0.0017821622963927397 0.0
0.0 -0.0017708648426391059 0.0
0.0 -0.0017941129849157324 0.0
0.0 -0.0017991232349621484 0.0
0.0 -0.0017807520384084735 0.0
0.0 -0.001782116422654357 0.0
0.0 -0.0017957905176606227 0.0
0.0 -0.001789137000026125 0.0
0.0 -0.0017814353387496928 0.0
0.0 -0.001790792511775013 0.0
0.0 -0.001791612489477448 0.0
0.0 -0.001783463798132101 0.0
0.0 -0.0017883091126326873 0.0
0.0 -0.001791559138367163 0.0
0.0 -0.001785012711834414 0.0
0.0 -0.0017875911209149881 0.0
0.0 -0.0017909346167560513 0.0
0.0 -0.0017857572915152122 0.0
0.0 -0.0017877075891189712 0.0
0.0 -0.001790279415652509 0.0
0.0 -0.0017860186300698564 0.0
0.0 -0.0017881923455986225 0.0
0.0 -0.0017895906154044498 0.0
0.0 -0.00178615078143361 0.0
0.0 -0.0017888023116824452 0.0
0.0 -0.0017887695867153718 0.0
0.0 -0.0017864599992554926 0.0
0.0 -0.0017892895051643228 0.0
0.0 -0.0017878432426408587 0.0
0.0 -0.001787141763554417 0.0
0.0 -0.0017893422419606282 0.0
0.0 -0.0017870854285871906 0.0
0.0 -0.0017881152565910946 0.0
0.0 -0.001788756514600703 0.0
0.0 -0.0017869397357498894 0.0
0.0 -0.0017889004126159362 0.0
0.0 -0.001787769354081267 0.0
0.0 -0.001787610095080862 0.0
0.0 -0.0017888753484603729 0.0
0.0 -0.001787152824195515 0.0
0.0 -0.0017885670731394609 0.0
0.0 -0.0017880110471038568 0.0
0.0 -0.0017875599634457173 0.0
0.0 -0.0017887690368389906 0.0
0.0 -0.0017872986182329838 0.0
0.0 -0.0017884982254403542 0.0
0.0 -0.001787951009443996 0.0
0.0 -0.0017877175492243377 0.0
0.0 -0.0017886033007715183 0.0
0.0 -0.0017873742435380322 0.0
0.0 -0.0017885728534087636 0.0
0.0 -0.0017877297476982209 0.0
0.0 -0.0017880208470133806 0.0
0.0 -0.0017883179078273259 0.0
0.0 -0.0017875425977514079 0.0
0.0 -0.00178858722880372 0.0
0.0 -0.0017875197214333761 0.0
0.0 -0.0017883848664056838 0.0
0.0 -0.0017878826290215455 0.0
0.0 -0.0017879484250638762 0.0
0.0 -0.0017883044579527425 0.0
0.0 -0.0017876137392434223 0.0
0.0 -0.0017885052500391638 0.0
0.0 -0.0017875646011936623 0.0
0.0 -0.0017884114461422572 0.0
0.0 -0.0017877725809033616 0.0
0.0 -0.001788129948248101 0.0
0.0 -0.0017880832276073678 0.0
0.0 -0.001787831404006203 0.0
0.0 -0.0017883363815150938 0.0
0.0 -0.0017876463626240353 0.0
0.0 -0.001788441789115071 0.0
0.0 -0.001787621866501852 0.0
0.0 -0.0017883923943373397 0.0
0.0 -0.0017877323082348597 0.0
0.0 -0.0017882370681383685 0.0
0.0 -0.0017879153171069069 0.0
0.0 -0.0017880428139208455 0.0
0.0 -0.0017881064493519869 0.0
0.0 -0.0017878663427859734 0.0
0.0 -0.001788259876316581 0.0
0.0 -0.0017877412454718057 0.0
0.0 -0.0017883541661089708 0.0
0.0 -0.0017876779022914754 0.0
0.0 -0.0017883882459089665 0.0
0.0 -0.0017876701218510998 0.0
0.0 -0.0017883734934923472 0.0
0.0 -0.001787703264983352 0.0
0.0 -0.001788326153281681 0.0
0.0 -0.001787760813004976 0.0
0.0 -0.001788262022951077 0.0
0.0 -0.0017878283699720725 0.0
0.0 -0.0017881936899651171 0.0
0.0 -0.001787895339646809 0.0
0.0 -0.0017881297486779073 0.0
0.0 -0.001787955016927016 0.0
0.0 -0.0017880752081741163 0.0
0.0 -0.0017880038500740993 0.0
0.0 -0.0017880324195533443 0.0
0.0 -0.0017880404340451235 0.0
0.0 -0.0017880020803711224 0.0
0.0 -0.0017880645650030001 0.0
0.0 -0.0017879840848272874 0.0
0.0 -0.0017880765061012282 0.0
0.0 -0.0017880765061012288 0.0
0.0 -0.0017879840848272718 0.0
0.0 -0.0017880645650030149 0.0
0.0 -0.0017880020803711335 0.0
0.0 -0.001788040434045136 0.0
0.0 -0.0017880324195533503 0.0
0.0 -0.0017880038500741066 0.0
0.0 -0.0017880752081741247 0.0
0.0 -0.001787955016927025 0.0
0.0 -0.0017881297486779131 0.0
0.0 -0.001787895339646801 0.0
0.0 -0.0017881936899651109 0.0
0.0 -0.0017878283699720651 0.0
0.0 -0.00178826202295107 0.0
0.0 -0.0017877608130049802 0.0
0.0 -0.0017883261532816968 0.0
0.0 -0.0017877032649833383 0.0
0.0 -0.001788373493492328 0.0
0.0 -0.0017876701218510985 0.0
0.0 -0.001788388245908969 0.0
0.0 -0.0017876779022914567 0.0
0.0 -0.0017883541661089508 0.0
0.0 -0.0017877412454718065 0.0
0.0 -0.0017882598763165826 0.0
0.0 -0.0017878663427859816 0.0
0.0 -0.001788106449351967 0.0
0.0 -0.00178804281392085 0.0
0.0 -0.0017879153171069088 0.0
0.0 -0.00178823706813839 0.0
0.0 -0.0017877323082348393 0.0
0.0 -0.0017883923943373399 0.0
0.0 -0.0017876218665018474 0.0
0.0 -0.0017884417891150715 0.0
0.0 -0.0017876463626240499 0.0
0.0 -0.0017883363815150853 0.0
0.0 -0.001787831404006235 0.0
0.0 -0.0017880832276073442 0.0
0.0 -0.0017881299482481127 0.0
0.0 -0.0017877725809033235 0.0
0.0 -0.0017884114461422789 0.0
0.0 -0.001787564601193664 0.0
0.0 -0.0017885052500391627 0.0
0.0 -0.0017876137392434483 0.0
0.0 -0.0017883044579527028 0.0
0.0 -0.0017879484250639239 0.0