# vtk DataFile Version 2.0
data_502
ASCII
DATASET UNSTRUCTURED_GRID
POINTS 804 float
0.0 0.0 0.0
0.1 0.0 0.0
0.1 20.0 0.0
0.0 20.0 0.0
0.0 0.0 -0.1
0.1 0.0 -0.1
0.1 20.0 -0.1
0.0 20.0 -0.1
0.1 0.09999999999992462 0.0
0.1 0.1999999999998517 0.0
0.1 0.2999999999997818 0.0
0.1 0.399999999999712 0.0
0.1 0.4999999999996377 0.0
0.1 0.5999999999995541 0.0
0.1 0.6999999999994495 0.0
0.1 0.7999999999993355 0.0
0.1 0.8999999999992101 0.0
0.1 0.999999999999102 0.0
0.1 1.099999999999006 0.0
0.1 1.199999999998936 0.0
0.1 1.299999999998867 0.0
0.1 1.399999999998797 0.0
0.1 1.499999999998727 0.0
0.1 1.599999999998657 0.0
0.1 1.699999999998587 0.0
0.1 1.799999999998517 0.0
0.1 1.899999999998447 0.0
0.1 1.999999999998378 0.0
0.1 2.099999999998308 0.0
0.1 2.199999999998238 0.0
0.1 2.299999999998168 0.0
0.1 2.399999999998067 0.0
0.1 2.499999999997942 0.0
0.1 2.599999999997706 0.0
0.1 2.699999999997444 0.0
0.1 2.799999999997153 0.0
0.1 2.899999999996861 0.0
0.1 2.999999999996569 0.0
0.1 3.099999999996277 0.0
0.1 3.199999999995984 0.0
0.1 3.299999999995693 0.0
0.1 3.399999999995401 0.0
0.1 3.499999999995108 0.0
0.1 3.599999999994816 0.0
0.1 3.699999999994525 0.0
0.1 3.799999999994232 0.0
0.1 3.89999999999394 0.0
0.1 3.999999999993648 0.0
0.1 4.099999999993356 0.0
0.1 4.199999999993064 0.0
0.1 4.299999999992772 0.0
0.1 4.399999999992479 0.0
0.1 4.499999999992188 0.0
0.1 4.599999999991895 0.0
0.1 4.699999999991603 0.0
0.1 4.799999999991311 0.0
0.1 4.899999999991019 0.0
0.1 4.999999999990727 0.0
0.1 5.099999999990436 0.0
0.1 5.199999999990144 0.0
0.1 5.299999999989851 0.0
0.1 5.399999999989559 0.0
0.1 5.499999999989267 0.0
0.1 5.599999999988975 0.0
0.1 5.699999999988683 0.0
0.1 5.799999999988391 0.0
0.1 5.899999999988099 0.0
0.1 5.999999999987806 0.0
0.1 6.099999999987515 0.0
0.1 6.199999999987222 0.0
0.1 6.299999999986929 0.0
0.1 6.399999999986638 0.0
0.1 6.499999999986345 0.0
0.1 6.599999999986054 0.0
0.1 6.699999999985762 0.0
0.1 6.79999999998547 0.0
0.1 6.899999999985177 0.0
0.1 6.999999999984885 0.0
0.1 7.099999999984593 0.0
0.1 7.199999999984302 0.0
0.1 7.299999999984009 0.0
0.1 7.399999999983717 0.0
0.1 7.499999999983426 0.0
0.1 7.599999999983132 0.0
0.1 7.699999999982841 0.0
0.1 7.799999999982549 0.0
0.1 7.899999999982256 0.0
0.1 7.999999999982034 0.0
0.1 8.099999999981964 0.0
0.1 8.199999999982062 0.0
0.1 8.299999999982214 0.0
0.1 8.399999999982366 0.0
0.1 8.499999999982517 0.0
0.1 8.59999999998267 0.0
0.1 8.699999999982822 0.0
0.1 8.799999999982973 0.0
0.1 8.899999999983125 0.0
0.1 8.999999999983277 0.0
0.1 9.09999999998343 0.0
0.1 9.19999999998358 0.0
0.1 9.299999999983733 0.0
0.1 9.399999999983885 0.0
0.1 9.499999999984038 0.0
0.1 9.599999999984188 0.0
0.1 9.69999999998434 0.0
0.1 9.799999999984493 0.0
0.1 9.899999999984646 0.0
0.1 9.999999999984798 0.0
0.1 10.09999999998495 0.0
0.1 10.1999999999851 0.0
0.1 10.29999999998525 0.0
0.1 10.39999999998541 0.0
0.1 10.49999999998556 0.0
0.1 10.59999999998571 0.0
0.1 10.69999999998586 0.0
0.1 10.79999999998601 0.0
0.1 10.89999999998616 0.0
0.1 10.99999999998632 0.0
0.1 11.09999999998647 0.0
0.1 11.19999999998662 0.0
0.1 11.29999999998677 0.0
0.1 11.39999999998693 0.0
0.1 11.49999999998708 0.0
0.1 11.59999999998723 0.0
0.1 11.69999999998738 0.0
0.1 11.79999999998754 0.0
0.1 11.89999999998769 0.0
0.1 11.99999999998784 0.0
0.1 12.09999999998799 0.0
0.1 12.19999999998814 0.0
0.1 12.2999999999883 0.0
0.1 12.39999999998845 0.0
0.1 12.4999999999886 0.0
0.1 12.59999999998875 0.0
0.1 12.6999999999889 0.0
0.1 12.79999999998905 0.0
0.1 12.89999999998921 0.0
0.1 12.99999999998936 0.0
0.1 13.09999999998951 0.0
0.1 13.19999999998966 0.0
0.1 13.29999999998982 0.0
0.1 13.39999999998997 0.0
0.1 13.49999999999012 0.0
0.1 13.59999999999027 0.0
0.1 13.69999999999042 0.0
0.1 13.79999999999057 0.0
0.1 13.89999999999073 0.0
0.1 13.99999999999088 0.0
0.1 14.09999999999103 0.0
0.1 14.19999999999118 0.0
0.1 14.29999999999134 0.0
0.1 14.39999999999149 0.0
0.1 14.49999999999164 0.0
0.1 14.59999999999179 0.0
0.1 14.69999999999194 0.0
0.1 14.7999999999921 0.0
0.1 14.89999999999225 0.0
0.1 14.9999999999924 0.0
0.1 15.09999999999255 0.0
0.1 15.1999999999927 0.0
0.1 15.29999999999285 0.0
0.1 15.39999999999301 0.0
0.1 15.49999999999316 0.0
0.1 15.59999999999331 0.0
0.1 15.69999999999346 0.0
0.1 15.79999999999362 0.0
0.1 15.89999999999377 0.0
0.1 15.99999999999392 0.0
0.1 16.09999999999407 0.0
0.1 16.19999999999422 0.0
0.1 16.29999999999437 0.0
0.1 16.39999999999453 0.0
0.1 16.49999999999468 0.0
0.1 16.59999999999483 0.0
0.1 16.69999999999498 0.0
0.1 16.79999999999514 0.0
0.1 16.89999999999528 0.0
0.1 16.99999999999544 0.0
0.1 17.09999999999559 0.0
0.1 17.19999999999574 0.0
0.1 17.29999999999589 0.0
0.1 17.39999999999605 0.0
0.1 17.4999999999962 0.0
0.1 17.59999999999635 0.0
0.1 17.6999999999965 0.0
0.1 17.79999999999665 0.0
0.1 17.89999999999681 0.0
0.1 17.99999999999696 0.0
0.1 18.09999999999711 0.0
0.1 18.19999999999726 0.0
0.1 18.29999999999742 0.0
0.1 18.39999999999757 0.0
0.1 18.49999999999772 0.0
0.1 18.59999999999787 0.0
0.1 18.69999999999802 0.0
0.1 18.79999999999818 0.0
0.1 18.89999999999833 0.0
0.1 18.99999999999848 0.0
0.1 19.09999999999863 0.0
0.1 19.19999999999878 0.0
0.1 19.29999999999894 0.0
0.1 19.39999999999909 0.0
0.1 19.49999999999924 0.0
0.1 19.59999999999939 0.0
0.1 19.69999999999955 0.0
0.1 19.7999999999997 0.0
0.1 19.89999999999985 0.0
0.0 19.9 0.0
0.0 19.8 0.0
0.0 19.7 0.0
0.0 19.6 0.0
0.0 19.5 0.0
0.0 19.4 0.0
0.0 19.3 0.0
0.0 19.2 0.0
0.0 19.1 0.0
0.0 19.0 0.0
0.0 18.9 0.0
0.0 18.8 0.0
0.0 18.7 0.0
0.0 18.6 0.0
0.0 18.5 0.0
0.0 18.4 0.0
0.0 18.3 0.0
0.0 18.2 0.0
0.0 18.1 0.0
0.0 18.0 0.0
0.0 17.9 0.0
0.0 17.8 0.0
0.0 17.7 0.0
0.0 17.6 0.0
0.0 17.5 0.0
0.0 17.4 0.0
0.0 17.3 0.0
0.0 17.2 0.0
0.0 17.09999999999999 0.0
0.0 17.0 0.0
0.0 16.9 0.0
0.0 16.8 0.0
0.0 16.7 0.0
0.0 16.59999999999999 0.0
0.0 16.49999999999999 0.0
0.0 16.4 0.0
0.0 16.29999999999999 0.0
0.0 16.2 0.0
0.0 16.09999999999999 0.0
0.0 15.99999999999999 0.0
0.0 15.89999999999999 0.0
0.0 15.79999999999999 0.0
0.0 15.69999999999999 0.0
0.0 15.59999999999999 0.0
0.0 15.49999999999999 0.0
0.0 15.39999999999999 0.0
0.0 15.29999999999999 0.0
0.0 15.19999999999999 0.0
0.0 15.09999999999999 0.0
0.0 14.99999999999999 0.0
0.0 14.89999999999999 0.0
0.0 14.79999999999999 0.0
0.0 14.69999999999999 0.0
0.0 14.59999999999999 0.0
0.0 14.49999999999999 0.0
0.0 14.39999999999999 0.0
0.0 14.29999999999999 0.0
0.0 14.19999999999999 0.0
0.0 14.09999999999999 0.0
0.0 13.99999999999999 0.0
0.0 13.89999999999999 0.0
0.0 13.79999999999999 0.0
0.0 13.69999999999999 0.0
0.0 13.59999999999999 0.0
0.0 13.49999999999999 0.0
0.0 13.39999999999999 0.0
0.0 13.29999999999999 0.0
0.0 13.19999999999999 0.0
0.0 13.09999999999999 0.0
0.0 12.99999999999999 0.0
0.0 12.89999999999999 0.0
0.0 12.79999999999999 0.0
0.0 12.69999999999999 0.0
0.0 12.59999999999999 0.0
0.0 12.49999999999999 0.0
0.0 12.39999999999999 0.0
0.0 12.29999999999999 0.0
0.0 12.19999999999999 0.0
0.0 12.09999999999999 0.0
0.0 11.99999999999999 0.0
0.0 11.89999999999999 0.0
0.0 11.79999999999999 0.0
0.0 11.69999999999999 0.0
0.0 11.59999999999999 0.0
0.0 11.49999999999999 0.0
0.0 11.39999999999999 0.0
0.0 11.29999999999999 0.0
0.0 11.19999999999999 0.0
0.0 11.09999999999999 0.0
0.0 10.99999999999999 0.0
0.0 10.89999999999999 0.0
0.0 10.79999999999999 0.0
0.0 10.69999999999999 0.0
0.0 10.59999999999999 0.0
0.0 10.49999999999999 0.0
0.0 10.39999999999999 0.0
0.0 10.29999999999999 0.0
0.0 10.19999999999999 0.0
0.0 10.09999999999999 0.0
0.0 9.999999999999993 0.0
0.0 9.899999999999993 0.0
0.0 9.799999999999994 0.0
0.0 9.699999999999992 0.0
0.0 9.599999999999993 0.0
0.0 9.499999999999993 0.0
0.0 9.399999999999993 0.0
0.0 9.299999999999995 0.0
0.0 9.199999999999996 0.0
0.0 9.099999999999994 0.0
0.0 8.999999999999995 0.0
0.0 8.899999999999995 0.0
0.0 8.799999999999994 0.0
0.0 8.699999999999994 0.0
0.0 8.599999999999994 0.0
0.0 8.499999999999995 0.0
0.0 8.399999999999995 0.0
0.0 8.299999999999994 0.0
0.0 8.199999999999994 0.0
0.0 8.099999999999994 0.0
0.0 7.999999999999993 0.0
0.0 7.899999999999995 0.0
0.0 7.799999999999995 0.0
0.0 7.699999999999996 0.0
0.0 7.599999999999996 0.0
0.0 7.499999999999996 0.0
0.0 7.399999999999995 0.0
0.0 7.299999999999995 0.0
0.0 7.199999999999996 0.0
0.0 7.099999999999994 0.0
0.0 6.999999999999995 0.0
0.0 6.899999999999995 0.0
0.0 6.799999999999995 0.0
0.0 6.699999999999996 0.0
0.0 6.599999999999994 0.0
0.0 6.499999999999995 0.0
0.0 6.399999999999997 0.0
0.0 6.299999999999997 0.0
0.0 6.199999999999996 0.0
0.0 6.099999999999996 0.0
0.0 5.999999999999996 0.0
0.0 5.899999999999997 0.0
0.0 5.799999999999997 0.0
0.0 5.699999999999996 0.0
0.0 5.599999999999996 0.0
0.0 5.499999999999996 0.0
0.0 5.399999999999995 0.0
0.0 5.299999999999995 0.0
0.0 5.199999999999996 0.0
0.0 5.099999999999996 0.0
0.0 4.999999999999998 0.0
0.0 4.899999999999999 0.0
0.0 4.799999999999997 0.0
0.0 4.699999999999998 0.0
0.0 4.599999999999998 0.0
0.0 4.499999999999996 0.0
0.0 4.399999999999997 0.0
0.0 4.299999999999997 0.0
0.0 4.199999999999998 0.0
0.0 4.099999999999998 0.0
0.0 3.999999999999996 0.0
0.0 3.899999999999999 0.0
0.0 3.799999999999997 0.0
0.0 3.699999999999996 0.0
0.0 3.599999999999998 0.0
0.0 3.5 0.0
0.0 3.399999999999999 0.0
0.0 3.299999999999997 0.0
0.0 3.199999999999999 0.0
0.0 3.099999999999998 0.0
0.0 3.0 0.0
0.0 2.899999999999999 0.0
0.0 2.799999999999997 0.0
0.0 2.699999999999999 0.0
0.0 2.599999999999998 0.0
0.0 2.499999999999996 0.0
0.0 2.399999999999999 0.0
0.0 2.299999999999997 0.0
0.0 2.199999999999999 0.0
0.0 2.100000000000001 0.0
0.0 2.0 0.0
0.0 1.899999999999999 0.0
0.0 1.800000000000001 0.0
0.0 1.699999999999999 0.0
0.0 1.599999999999998 0.0
0.0 1.5 0.0
0.0 1.399999999999999 0.0
0.0 1.299999999999997 0.0
0.0 1.199999999999999 0.0
0.0 1.099999999999998 0.0
0.0 1.0 0.0
0.0 0.8999999999999986 0.0
0.0 0.8000000000000007 0.0
0.0 0.6999999999999993 0.0
0.0 0.6000000000000014 0.0
0.0 0.5 0.0
0.0 0.3999999999999986 0.0
0.0 0.3000000000000007 0.0
0.0 0.1999999999999993 0.0
[...]
POINT_DATA 804
VECTORS displacement double
0.0 0.0 0.0
0.0 0.0 0.0
0.0 -0.0017861382487081793 0.0
0.0 -0.0017861382487081754 0.0
0.0 0.0 0.0
0.0 0.0 0.0
0.0 -0.00178613824870819 0.0
0.0 -0.001786138248708175 0.0
0.0 -4.339146759144543e-11 0.0
0.0 4.400339245736896e-11 0.0
0.0 -6.378679437674308e-11 0.0
0.0 -1.095810806827065e-11 0.0
0.0 -3.5475242942215e-12 0.0
0.0 -8.572858380345926e-11 0.0
0.0 3.633678877173094e-12 0.0
0.0 -6.056735148336876e-11 0.0
0.0 -8.333302737191334e-11 0.0
0.0 -5.330005411456128e-13 0.0
0.0 -1.1994534556230335e-10 0.0
0.0 -5.7757839658979506e-11 0.0
0.0 -3.036050655918248e-11 0.0
0.0 -1.7855834897419432e-10 0.0
0.0 1.1732259108601053e-11 0.0
0.0 -1.4525456735123554e-10 0.0
0.0 -1.431352266136544e-10 0.0
0.0 2.869420216492763e-11 0.0
0.0 -2.942838054813915e-10 0.0
0.0 2.627183122551026e-11 0.0
0.0 -1.53597686676011e-10 0.0
0.0 -2.553142121557765e-10 0.0
0.0 1.0860394882050297e-10 0.0
0.0 -4.111659005986836e-10 0.0
0.0 1.926605808049136e-11 0.0
0.0 -1.2932723955947847e-10 0.0
0.0 -3.8927229056966425e-10 0.0
0.0 1.791274094002464e-10 0.0
0.0 -4.824908791436033e-10 0.0
0.0 -5.161399402883503e-11 0.0
0.0 -5.85631732333938e-11 0.0
0.0 -5.164786611823914e-10 0.0
0.0 1.761705821489799e-10 0.0
0.0 -4.3704173940025173e-10 0.0
0.0 -2.2685786079661565e-10 0.0
0.0 4.196904589259325e-11 0.0
0.0 -5.662192243587457e-10 0.0
0.0 1.1600434254002389e-11 0.0
0.0 -2.2223295291899002e-10 0.0
0.0 -4.854529616176326e-10 0.0
0.0 8.28244717387746e-11 0.0
0.0 -4.344693897472705e-10 0.0
0.0 -3.573799386604238e-10 0.0
0.0 9.428014270777911e-11 0.0
0.0 -6.686314434975046e-10 0.0
0.0 -9.391399171956418e-11 0.0
0.0 -8.194473034736524e-11 0.0
0.0 -7.856163944221883e-10 0.0
0.0 2.302499879006714e-10 0.0
0.0 -5.13513264082489e-10 0.0
0.0 -5.497962643918429e-10 0.0
0.0 2.673121845815784e-10 0.0
0.0 -8.598075990374354e-10 0.0
0.0 -1.6862777244777514e-10 0.0
0.0 2.1996878337734076e-11 0.0
0.0 -9.411833210900255e-10 0.0
0.0 8.222095734457664e-11 0.0
0.0 -2.38245526691924e-10 0.0
0.0 -9.513716950906168e-10 0.0
0.0 3.174249189537685e-10 0.0
0.0 -5.826621279832572e-10 0.0
0.0 -8.375467734769175e-10 0.0
0.0 5.079038973979292e-10 0.0
0.0 -1.0462242315524833e-09 0.0
0.0 -4.616586350359467e-10 0.0
0.0 4.1279636399314744e-10 0.0
0.0 -1.337543566304657e-09 0.0
0.0 -8.332052502591122e-11 0.0
0.0 1.8844737195847772e-10 0.0
0.0 -1.4808782863450226e-09 0.0
0.0 2.077432476952736e-10 0.0
0.0 -5.4844393743984576e-12 0.0
0.0 -1.6637149212746703e-09 0.0
0.0 6.029465686878413e-10 0.0
0.0 -3.5703503662171975e-10 0.0
0.0 -1.704975251874584e-09 0.0
0.0 9.409035526168136e-10 0.0
0.0 -7.51134396834684e-10 0.0
0.0 -1.639335986407578e-09 0.0
0.0 1.1505027588160738e-09 0.0
0.0 -1.0129755991217308e-09 0.0
0.0 -1.7072561440335706e-09 0.0
0.0 1.4776284918320805e-09 0.0
0.0 -1.3444067937986879e-09 0.0
0.0 -1.7614892868937784e-09 0.0
0.0 1.8064517067109838e-09 0.0
0.0 -1.6442288321543691e-09 0.0
0.0 -1.8617622233250956e-09 0.0
0.0 2.0968069671904367e-09 0.0
0.0 -1.7439943644465818e-09 0.0
0.0 -2.2544441745762312e-09 0.0
0.0 2.574613779006651e-09 0.0
0.0 -1.7980424409440652e-09 0.0
0.0 -2.8056032102857226e-09 0.0
0.0 3.042319729471192e-09 0.0
0.0 -1.5636000495786854e-09 0.0
0.0 -3.652096163963688e-09 0.0
0.0 3.4037066997020522e-09 0.0
0.0 -7.939162654515209e-10 0.0
0.0 -4.945158368224643e-09 0.0
0.0 3.6036609787330436e-09 0.0
0.0 5.437956513341982e-10 0.0
0.0 -6.361196279226669e-09 0.0
0.0 3.013963819427799e-09 0.0
0.0 2.8467216272780823e-09 0.0
0.0 -7.656920190968999e-09 0.0
0.0 1.1314964675817756e-09 0.0
0.0 6.006873363204645e-09 0.0
0.0 -7.943914622148354e-09 0.0
0.0 -2.6220515831907173e-09 0.0
0.0 9.184067430592443e-09 0.0
0.0 -5.630177010289268e-09 0.0
0.0 -8.505600691951986e-09 0.0
0.0 1.064378791058625e-08 0.0
0.0 5.847584017097908e-10 0.0
0.0 -1.4698524436930294e-08 0.0
0.0 6.9699684461483315e-09 0.0
0.0 1.0816187510563625e-08 0.0
0.0 -1.6793044466957135e-08 0.0
0.0 -4.655974098033811e-09 0.0
0.0 2.055883853033229e-08 0.0
0.0 -7.998746518981575e-09 0.0
0.0 -2.1997324976557142e-08 0.0
0.0 1.889500444692961e-08 0.0
0.0 1.490690288465067e-08 0.0
0.0 -3.1748093170450313e-08 0.0
0.0 -5.411968383980415e-09 0.0
0.0 3.8558714096380533e-08 0.0
0.0 -1.1189733053005615e-08 0.0
0.0 -4.449653341475131e-08 0.0
0.0 2.775995151189076e-08 0.0
0.0 4.3053979145310943e-08 0.0
0.0 -4.952105374452868e-08 0.0
0.0 -4.089753084844256e-08 0.0
0.0 6.996478799715504e-08 0.0
0.0 3.266088731145118e-08 0.0
0.0 -9.620496323194967e-08 0.0
0.0 -2.6042404274432027e-08 0.0
0.0 1.2334781618860464e-07 0.0
0.0 1.6836964121194638e-08 0.0
0.0 -1.6107871283358352e-07 0.0
0.0 -1.5053961839226114e-08 0.0
0.0 2.0670033838773058e-07 0.0
0.0 2.080848719994801e-08 0.0
0.0 -2.721033727455186e-07 0.0
0.0 -5.309211537550589e-08 0.0
0.0 3.538898106835291e-07 0.0
0.0 1.2774363455967313e-07 0.0
0.0 -4.5531851385799216e-07 0.0
0.0 -2.8970586201611956e-07 0.0
0.0 5.426982560634171e-07 0.0
0.0 5.869423455832359e-07 0.0
0.0 -5.41616871334781e-07 0.0
0.0 -1.0792734262085399e-06 0.0
0.0 2.5385322955378514e-07 0.0
0.0 1.7261863793081994e-06 0.0
0.0 6.650581869327164e-07 0.0
0.0 -2.1850551787328413e-06 0.0
0.0 -2.6399453550751744e-06 0.0
0.0 1.3352911854927625e-06 0.0
0.0 5.460671408143164e-06 0.0
0.0 3.027342042844166e-06 0.0
0.0 -6.2110473219375735e-06 0.0
0.0 -1.2539789097385675e-05 0.0
0.0 -4.340322276277869e-06 0.0
0.0 1.7813979969042746e-05 0.0
0.0 3.344783019689981e-05 0.0
0.0 8.624069107170125e-06 0.0
0.0 -8.703653769328744e-05 0.0
0.0 -0.0002640856820312831 0.0
0.0 -0.0005075863153403068 0.0
0.0 -0.0007839794894768696 0.0
0.0 -0.0010548740590278789 0.0
0.0 -0.001289821883839879 0.0
0.0 -0.0014728710875952173 0.0
0.0 -0.0016022507547921309 0.0
0.0 -0.0016857629793007763 0.0
0.0 -0.0017352116153749465 0.0
0.0 -0.0017621452001305618 0.0
0.0 -0.0017756594866397235 0.0
0.0 -0.0017819071090892642 0.0
0.0 -0.001784565140859332 0.0
0.0 -0.00178560297519572 0.0
0.0 -0.0017859731289843939 0.0
0.0 -0.0017860927580983562 0.0
0.0 -0.0017861273620187114 0.0
0.0 -0.0017861361072898639 0.0
0.0 -0.0017861379601623096 0.0
0.0 -0.0017861382480333589 0.0
0.0 -0.0017861382651776071 0.0
0.0 -0.0017861382576311298 0.0
0.0 -0.001786138251479283 0.0
0.0 -0.00178613825388754 0.0
0.0 -0.001786138249618545 0.0
0.0 -0.0017861382547231896 0.0
0.0 -0.0017861382491141885 0.0
0.0 -0.0017861382553797465 0.0
0.0 -0.0017861382488100904 0.0
0.0 -0.0017861382557028509 0.0
0.0 -0.0017861382557028422 0.0
0.0 -0.0017861382488100902 0.0
0.0 -0.001786138255379746 0.0
0.0 -0.0017861382491141749 0.0
0.0 -0.0017861382547231747 0.0
0.0 -0.001786138249618541 0.0
0.0 -0.0017861382538875432 0.0
0.0 -0.0017861382514792756 0.0
0.0 -0.001786138257631121 0.0
0.0 -0.0017861382651776 0.0
0.0 -0.0017861382480333725 0.0
0.0 -0.0017861379601623066 0.0
0.0 -0.0017861361072898754 0.0
0.0 -0.001786127362018727 0.0
0.0 -0.0017860927580983532 0.0
0.0 -0.001785973128984424 0.0
0.0 -0.0017856029751957693 0.0
0.0 -0.001784565140859378 0.0
0.0 -0.0017819071090893815 0.0
0.0 -0.0017756594866400089 0.0
0.0 -0.0017621452001311648 0.0
0.0 -0.001735211615376165 0.0
0.0 -0.001685762979303027 0.0
0.0 -0.0016022507547959381 0.0
0.0 -0.0014728710876011264 0.0
0.0 -0.0012898218838481832 0.0
0.0 -0.0010548740590384264 0.0
0.0 -0.0007839794894887779 0.0
0.0 -0.0005075863153520439 0.0
0.0 -0.0002640856820410872 0.0
0.0 -8.703653769975522e-05 0.0
0.0 8.624069104397168e-06 0.0
0.0 3.344783019695149e-05 0.0
0.0 1.7813979970267285e-05 0.0
0.0 -4.3403222753820044e-06 0.0
0.0 -1.2539789097402858e-05 0.0
0.0 -6.211047322494129e-06 0.0
0.0 3.0273420424514707e-06 0.0
0.0 5.460671408242323e-06 0.0
0.0 1.3352911858070899e-06 0.0
0.0 -2.6399453549555285e-06 0.0
0.0 -2.1850551788836996e-06 0.0
0.0 6.650581867799586e-07 0.0
0.0 1.7261863793456042e-06 0.0
0.0 2.538532296827079e-07 0.0
0.0 -1.0792734261758044e-06 0.0
0.0 -5.416168714141972e-07 0.0
0.0 5.869423455347389e-07 0.0
0.0 5.426982561178201e-07 0.0
0.0 -2.897058619687121e-07 0.0
0.0 -4.553185138857428e-07 0.0
0.0 1.2774363451646924e-07 0.0
0.0 3.538898106923414e-07 0.0
0.0 -5.3092115340282057e-08 0.0
0.0 -2.7210337275359045e-07 0.0
0.0 2.0808487168061382e-08 0.0
0.0 2.0670033839188993e-07 0.0
0.0 -1.5053961814241487e-08 0.0
0.0 -1.6107871283887962e-07 0.0
0.0 1.6836964106483373e-08 0.0
0.0 1.2334781619275177e-07 0.0
0.0 -2.6042404263337536e-08 0.0
0.0 -9.620496323754357e-08 0.0
0.0 3.2660887300259916e-08 0.0
0.0 6.996478799896768e-08 0.0
0.0 -4.089753083975906e-08 0.0
0.0 -4.952105375317077e-08 0.0
0.0 4.305397913963521e-08 0.0
0.0 2.7759951515329706e-08 0.0
0.0 -4.449653341335641e-08 0.0
0.0 -1.1189733058476674e-08 0.0
0.0 3.855871409678906e-08 0.0
0.0 -5.411968380826964e-09 0.0
0.0 -3.174809317385489e-08 0.0
0.0 1.490690287996345e-08 0.0
0.0 1.889500445173959e-08 0.0
0.0 -2.1997324976195856e-08 0.0
0.0 -7.998746523960047e-09 0.0
0.0 2.0558838530573994e-08 0.0
0.0 -4.655974092454682e-09 0.0
0.0 -1.679304446879195e-08 0.0
0.0 1.0816187507257493e-08 0.0
0.0 6.969968450319278e-09 0.0
0.0 -1.4698524434540029e-08 0.0
0.0 5.847583983642697e-10 0.0
0.0 1.0643787911914284e-08 0.0
0.0 -8.50560069041375e-09 0.0
0.0 -5.630177012301153e-09 0.0
0.0 9.184067429910144e-09 0.0
0.0 -2.6220515819869772e-09 0.0
0.0 -7.943914624759267e-09 0.0
0.0 6.0068733607822255e-09 0.0
0.0 1.1314964717106472e-09 0.0
0.0 -7.656920190246548e-09 0.0
0.0 2.8467216258781502e-09 0.0
0.0 3.0139638208848784e-09 0.0
0.0 -6.3611962797891234e-09 0.0
0.0 5.43795650656976e-10 0.0
0.0 3.603660982202874e-09 0.0
0.0 -4.9451583667330836e-09 0.0
0.0 -7.939162664905529e-10 0.0
0.0 3.4037066986785262e-09 0.0
0.0 -3.6520961637143947e-09 0.0
0.0 -1.5636000487737282e-09 0.0
0.0 3.042319730705329e-09 0.0
0.0 -2.8056032091396895e-09 0.0
0.0 -1.7980424393620043e-09 0.0
0.0 2.5746137801971254e-09 0.0
0.0 -2.2544441744128544e-09 0.0
0.0 -1.7439943647797377e-09 0.0
0.0 2.096806969113166e-09 0.0
0.0 -1.8617622219625416e-09 0.0
0.0 -1.6442288329029376e-09 0.0
0.0 1.806451706968563e-09 0.0
0.0 -1.7614892868982613e-09 0.0
0.0 -1.3444067948927122e-09 0.0
0.0 1.4776284911050712e-09 0.0
0.0 -1.7072561437685273e-09 0.0
0.0 -1.012975599292956e-09 0.0
0.0 1.1505027595327313e-09 0.0
0.0 -1.639335986693391e-09 0.0
0.0 -7.511343988677393e-10 0.0
0.0 9.40903551523025e-10 0.0
0.0 -1.7049752516150122e-09 0.0
0.0 -3.570350367873411e-10 0.0
0.0 6.029465687678394e-10 0.0
0.0 -1.6637149204205318e-09 0.0
0.0 -5.48443803858567e-12 0.0
0.0 2.077432488186836e-10 0.0
0.0 -1.4808782864592217e-09 0.0
0.0 1.8844737150156812e-10 0.0
0.0 -8.33205247929403e-11 0.0
0.0 -1.3375435663496285e-09 0.0
0.0 4.127963635456057e-10 0.0
0.0 -4.6165863480744435e-10 0.0
0.0 -1.0462242320520086e-09 0.0
0.0 5.079038976719522e-10 0.0
0.0 -8.375467724138009e-10 0.0
0.0 -5.826621277828748e-10 0.0
0.0 3.1742491920538675e-10 0.0
0.0 -9.51371694985338e-10 0.0
0.0 -2.382455269993069e-10 0.0
0.0 8.222095805652683e-11 0.0
0.0 -9.411833207118373e-10 0.0
0.0 2.1996877736087178e-11 0.0
0.0 -1.6862777235949647e-10 0.0
0.0 -8.59807598836138e-10 0.0
0.0 2.673121843727042e-10 0.0
0.0 -5.497962645080958e-10 0.0
0.0 -5.135132638247658e-10 0.0
0.0 2.302499884848073e-10 0.0
0.0 -7.856163940043106e-10 0.0
0.0 -8.194473008414361e-11 0.0
0.0 -9.391399149148986e-11 0.0
0.0 -6.686314432620093e-10 0.0
0.0 9.42801428357179e-11 0.0
0.0 -3.573799385954727e-10 0.0
0.0 -4.3446938989884654e-10 0.0
0.0 8.282447168236333e-11 0.0
0.0 -4.854529615142921e-10 0.0
0.0 -2.2223295262856552e-10 0.0
0.0 1.1600434384675921e-11 0.0
0.0 -5.662192242230191e-10 0.0
0.0 4.196904599643425e-11 0.0
0.0 -2.2685786090358104e-10 0.0
0.0 -4.3704173911082966e-10 0.0
0.0 1.7617058254476123e-10 0.0
0.0 -5.164786611770635e-10 0.0
0.0 -5.856317323383246e-11 0.0
0.0 -5.1613994165434935e-11 0.0
0.0 -4.824908792220059e-10 0.0
0.0 1.7912740978636742e-10 0.0
0.0 -3.8927229025666376e-10 0.0
0.0 -1.2932723968597038e-10 0.0
0.0 1.9266058103498626e-11 0.0
0.0 -4.1116590061023996e-10 0.0
0.0 1.0860394864186102e-10 0.0
0.0 -2.5531421223692474e-10 0.0
0.0 -1.5359768647669937e-10 0.0
0.0 2.6271831395115826e-11 0.0
0.0 -2.9428380547766996e-10 0.0
0.0 2.8694202222526447e-11 0.0
0.0 -1.4313522635345751e-10 0.0
0.0 -1.4525456702356407e-10 0.0
0.0 1.1732259409820285e-11 0.0
0.0 -1.7855834892699461e-10 0.0
0.0 -3.036050689049306e-11 0.0
0.0 -5.775784001589246e-11 0.0
0.0 -1.1994534560129106e-10 0.0
0.0 -5.330004283381361e-13 0.0
0.0 -8.333302734378063e-11 0.0
0.0 -6.056735129955198e-11 0.0
0.0 3.6336791719696237e-12 0.0
0.0 -8.572858363704492e-11 0.0
0.0 -3.547524352758993e-12 0.0
0.0 -1.095810803652364e-11 0.0
0.0 -6.378679424669714e-11 0.0
0.0 4.400339236062715e-11 0.0
0.0 -4.339146768431841e-11 0.0
0.0 -4.339146774522289e-11 0.0
0.0 4.400339246920704e-11 0.0
0.0 -6.378679445864206e-11 0.0
0.0 -1.095810821680011e-11 0.0
0.0 -3.5475241472882707e-12 0.0
0.0 -8.57285835347045e-11 0.0
0.0 3.6336789120128347e-12 0.0
0.0 -6.056735142351842e-11 0.0
0.0 -8.333302739620745e-11 0.0
0.0 -5.330005615356614e-13 0.0
0.0 -1.19945345577735e-10 0.0
0.0 -5.7757839740555205e-11 0.0
0.0 -3.036050657776392e-11 0.0
0.0 -1.785583489469253e-10 0.0
0.0 1.1732259205272806e-11 0.0
0.0 -1.4525456722114513e-10 0.0
0.0 -1.431352264175032e-10 0.0
0.0 2.8694202246165214e-11 0.0
0.0 -2.9428380584755075e-10 0.0
0.0 2.6271830831313514e-11 0.0
0.0 -1.5359768691713902e-10 0.0
0.0 -2.5531421246180346e-10 0.0
0.0 1.0860394886933116e-10 0.0
0.0 -4.111659003350395e-10 0.0
0.0 1.9266058274930722e-11 0.0
0.0 -1.2932723948438854e-10 0.0
0.0 -3.892722904415318e-10 0.0
0.0 1.7912740939814868e-10 0.0
0.0 -4.82490879128715e-10 0.0
0.0 -5.161399373158166e-11 0.0
0.0 -5.856317322390841e-11 0.0
0.0 -5.164786615159256e-10 0.0
0.0 1.7617058199018903e-10 0.0
0.0 -4.3704173950429927e-10 0.0
0.0 -2.2685786068078315e-10 0.0
0.0 4.196904630767401e-11 0.0
0.0 -5.662192240415267e-10 0.0
0.0 1.1600434335471223e-11 0.0
0.0 -2.2223295235613487e-10 0.0
0.0 -4.85452961072457e-10 0.0
0.0 8.28244718338057e-11 0.0
0.0 -4.344693894881918e-10 0.0
0.0 -3.5737993831462266e-10 0.0
0.0 9.428014269390304e-11 0.0
0.0 -6.686314435217362e-10 0.0
0.0 -9.391399169717557e-11 0.0
0.0 -8.1944730370408e-11 0.0
0.0 -7.856163946323121e-10 0.0
0.0 2.3024998792990086e-10 0.0
0.0 -5.135132641152907e-10 0.0
0.0 -5.497962647549234e-10 0.0
0.0 2.6731218440699964e-10 0.0
0.0 -8.598075985198781e-10 0.0
0.0 -1.6862777184147665e-10 0.0
0.0 2.19968783017298e-11 0.0
0.0 -9.411833214976191e-10 0.0
0.0 8.22209572952426e-11 0.0
0.0 -2.3824552662781565e-10 0.0
0.0 -9.513716947128771e-10 0.0
0.0 3.174249196231704e-10 0.0
0.0 -5.826621279250114e-10 0.0
0.0 -8.375467734624575e-10 0.0
0.0 5.079038977497415e-10 0.0
0.0 -1.0462242320640495e-09 0.0
0.0 -4.6165863503091423e-10 0.0
0.0 4.1279636444156396e-10 0.0
0.0 -1.3375435661991844e-09 0.0
0.0 -8.332052565175912e-11 0.0
0.0 1.88447371197728e-10 0.0
0.0 -1.4808782871797854e-09 0.0
0.0 2.0774324787932579e-10 0.0
0.0 -5.484438133961077e-12 0.0
0.0 -1.663714920856433e-09 0.0
0.0 6.029465680446323e-10 0.0
0.0 -3.570350370869209e-10 0.0
0.0 -1.704975251815423e-09 0.0
0.0 9.409035522184033e-10 0.0
0.0 -7.511343968966225e-10 0.0
0.0 -1.639335985738159e-09 0.0
0.0 1.1505027596285858e-09 0.0
0.0 -1.0129755994133008e-09 0.0
0.0 -1.7072561444165548e-09 0.0
0.0 1.4776284912369199e-09 0.0
0.0 -1.344406795244231e-09 0.0
0.0 -1.7614892879530748e-09 0.0
0.0 1.8064517080236664e-09 0.0
0.0 -1.6442288311102042e-09 0.0
0.0 -1.8617622228838175e-09 0.0
0.0 2.0968069683570128e-09 0.0
0.0 -1.7439943638649496e-09 0.0
0.0 -2.2544441751610074e-09 0.0
0.0 2.574613778496277e-09 0.0
0.0 -1.7980424409421069e-09 0.0
0.0 -2.805603210779099e-09 0.0
0.0 3.042319729602664e-09 0.0
0.0 -1.563600049946293e-09 0.0
0.0 -3.652096164947378e-09 0.0
0.0 3.4037066977763592e-09 0.0
0.0 -7.939162651984519e-10 0.0
0.0 -4.945158367389082e-09 0.0
0.0 3.603660979297778e-09 0.0
0.0 5.437956518912273e-10 0.0
0.0 -6.361196279867279e-09 0.0
0.0 3.0139638183409055e-09 0.0
0.0 2.846721626198902e-09 0.0
0.0 -7.656920191392262e-09 0.0
0.0 1.131496467951858e-09 0.0
0.0 6.006873361081466e-09 0.0
0.0 -7.94391462276193e-09 0.0
0.0 -2.622051581708108e-09 0.0
0.0 9.184067430405531e-09 0.0
0.0 -5.63017701144894e-09 0.0
0.0 -8.505600691782062e-09 0.0
0.0 1.0643787911209088e-08 0.0
0.0 5.847584002284082e-10 0.0
0.0 -1.4698524435811983e-08 0.0
0.0 6.9699684465662165e-09 0.0
0.0 1.0816187508734891e-08 0.0
0.0 -1.679304446705173e-08 0.0
0.0 -4.655974094655815e-09 0.0
0.0 2.055883853327039e-08 0.0
0.0 -7.998746516661358e-09 0.0
0.0 -2.1997324976701577e-08 0.0
0.0 1.8895004449472378e-08 0.0
0.0 1.4906902882326594e-08 0.0
0.0 -3.174809317176476e-08 0.0
0.0 -5.41196838460792e-09 0.0
0.0 3.85587140981395e-08 0.0
0.0 -1.1189733053923756e-08 0.0
0.0 -4.449653341649315e-08 0.0
0.0 2.7759951510135726e-08 0.0
0.0 4.30539791450068e-08 0.0
0.0 -4.9521053747308414e-08 0.0
0.0 -4.089753085248928e-08 0.0
0.0 6.996478799106625e-08 0.0
0.0 3.266088731065863e-08 0.0
0.0 -9.62049632318817e-08 0.0
0.0 -2.6042404275604016e-08 0.0
0.0 1.233478161928137e-07 0.0
0.0 1.6836964127283028e-08 0.0
0.0 -1.610787128362736e-07 0.0
0.0 -1.5053961847307953e-08 0.0
0.0 2.0670033838364645e-07 0.0
0.0 2.0808487194057117e-08 0.0
0.0 -2.721033727497739e-07 0.0
0.0 -5.309211537775049e-08 0.0
0.0 3.5388981068089204e-07 0.0
0.0 1.277436345599058e-07 0.0
0.0 -4.5531851385611646e-07 0.0
0.0 -2.8970586201882683e-07 0.0
0.0 5.426982560696232e-07 0.0
0.0 5.86942345586392e-07 0.0
0.0 -5.416168713272035e-07 0.0
0.0 -1.0792734262037815e-06 0.0
0.0 2.538532295590037e-07 0.0
0.0 1.7261863793198504e-06 0.0
0.0 6.650581869407471e-07 0.0
0.0 -2.1850551787351686e-06 0.0
0.0 -2.6399453550778667e-06 0.0
0.0 1.3352911854970424e-06 0.0
0.0 5.460671408149956e-06 0.0
0.0 3.0273420428372197e-06 0.0
0.0 -6.211047321947234e-06 0.0
0.0 -1.2539789097388636e-05 0.0
0.0 -4.340322276281845e-06 0.0
0.0 1.7813979969039744e-05 0.0
0.0 3.344783019690128e-05 0.0
0.0 8.624069107174275e-06 0.0
0.0 -8.703653769328784e-05 0.0
0.0 -0.0002640856820312859 0.0
0.0 -0.0005075863153403032 0.0
0.0 -0.0007839794894768568 0.0
0.0 -0.001054874059027869 0.0
0.0 -0.001289821883839893 0.0
0.0 -0.001472871087595224 0.0
0.0 -0.0016022507547921333 0.0
0.0 -0.0016857629793008014 0.0
0.0 -0.0017352116153749601 0.0
0.0 -0.001762145200130565 0.0
0.0 -0.001775659486639723 0.0
0.0 -0.0017819071090892538 0.0
0.0 -0.001784565140859338 0.0
0.0 -0.0017856029751957326 0.0
0.0 -0.001785973128984418 0.0
0.0 -0.001786092758098359 0.0
0.0 -0.0017861273620187223 0.0
0.0 -0.0017861361072898671 0.0
0.0 -0.0017861379601622916 0.0
0.0 -0.001786138248033367 0.0
0.0 -0.0017861382651776039 0.0
0.0 -0.0017861382576311146 0.0
0.0 -0.001786138251479272 0.0
0.0 -0.0017861382538875432 0.0
0.0 -0.0017861382496185555 0.0
0.0 -0.0017861382547231827 0.0
0.0 -0.001786138249114171 0.0
0.0 -0.001786138255379754 0.0
0.0 -0.0017861382488100939 0.0
0.0 -0.0017861382557028476 0.0
0.0 -0.0017861382557028526 0.0
0.0 -0.0017861382488100902 0.0
0.0 -0.0017861382553797506 0.0
0.0 -0.0017861382491141807 0.0
0.0 -0.0017861382547231892 0.0
0.0 -0.0017861382496185514 0.0
0.0 -0.0017861382538875495 0.0
0.0 -0.001786138251479279 0.0
0.0 -0.001786138257631138 0.0
0.0 -0.0017861382651776089 0.0
0.0 -0.0017861382480333623 0.0
0.0 -0.0017861379601623072 0.0
0.0 -0.0017861361072898812 0.0
0.0 -0.001786127362018729 0.0
0.0 -0.0017860927580983486 0.0
0.0 -0.0017859731289844027 0.0
0.0 -0.0017856029751957404 0.0
0.0 -0.001784565140859375 0.0
0.0 -0.001781907109089385 0.0
0.0 -0.0017756594866400054 0.0
0.0 -0.0017621452001311605 0.0
0.0 -0.0017352116153761588 0.0
0.0 -0.0016857629793030117 0.0
0.0 -0.0016022507547959431 0.0
0.0 -0.0014728710876011268 0.0
0.0 -0.0012898218838481787 0.0
0.0 -0.0010548740590384307 0.0
0.0 -0.0007839794894887915 0.0
0.0 -0.0005075863153520393 0.0
0.0 -0.0002640856820410884 0.0
0.0 -8.703653769976186e-05 0.0
0.0 8.62406910440559e-06 0.0
0.0 3.344783019695955e-05 0.0
0.0 1.7813979970282724e-05 0.0
0.0 -4.340322275379452e-06 0.0
0.0 -1.2539789097408445e-05 0.0
0.0 -6.211047322503852e-06 0.0
0.0 3.0273420424569074e-06 0.0
0.0 5.460671408243102e-06 0.0
0.0 1.3352911858061838e-06 0.0
0.0 -2.639945354961491e-06 0.0
0.0 -2.1850551788810175e-06 0.0
0.0 6.650581867804965e-07 0.0