# vtk DataFile Version 2.0
data_28
ASCII
DATASET UNSTRUCTURED_GRID
POINTS 804 float
0.0 0.0 0.0
0.1 0.0 0.0
0.1 20.0 0.0
0.0 20.0 0.0
0.0 0.0 -0.1
0.1 0.0 -0.1
0.1 20.0 -0.1
0.0 20.0 -0.1
0.1 0.09999999999992462 0.0
0.1 0.1999999999998517 0.0
0.1 0.2999999999997818 0.0
0.1 0.399999999999712 0.0
0.1 0.4999999999996377 0.0
0.1 0.5999999999995541 0.0
0.1 0.6999999999994495 0.0
0.1 0.7999999999993355 0.0
0.1 0.8999999999992101 0.0
0.1 0.999999999999102 0.0
0.1 1.099999999999006 0.0
0.1 1.199999999998936 0.0
0.1 1.299999999998867 0.0
0.1 1.399999999998797 0.0
0.1 1.499999999998727 0.0
0.1 1.599999999998657 0.0
0.1 1.699999999998587 0.0
0.1 1.799999999998517 0.0
0.1 1.899999999998447 0.0
0.1 1.999999999998378 0.0
0.1 2.099999999998308 0.0
0.1 2.199999999998238 0.0
0.1 2.299999999998168 0.0
0.1 2.399999999998067 0.0
0.1 2.499999999997942 0.0
0.1 2.599999999997706 0.0
0.1 2.699999999997444 0.0
0.1 2.799999999997153 0.0
0.1 2.899999999996861 0.0
0.1 2.999999999996569 0.0
0.1 3.099999999996277 0.0
0.1 3.199999999995984 0.0
0.1 3.299999999995693 0.0
0.1 3.399999999995401 0.0
0.1 3.499999999995108 0.0
0.1 3.599999999994816 0.0
0.1 3.699999999994525 0.0
0.1 3.799999999994232 0.0
0.1 3.89999999999394 0.0
0.1 3.999999999993648 0.0
0.1 4.099999999993356 0.0
0.1 4.199999999993064 0.0
0.1 4.299999999992772 0.0
0.1 4.399999999992479 0.0
0.1 4.499999999992188 0.0
0.1 4.599999999991895 0.0
0.1 4.699999999991603 0.0
0.1 4.799999999991311 0.0
0.1 4.899999999991019 0.0
0.1 4.999999999990727 0.0
0.1 5.099999999990436 0.0
0.1 5.199999999990144 0.0
0.1 5.299999999989851 0.0
0.1 5.399999999989559 0.0
0.1 5.499999999989267 0.0
0.1 5.599999999988975 0.0
0.1 5.699999999988683 0.0
0.1 5.799999999988391 0.0
0.1 5.899999999988099 0.0
0.1 5.999999999987806 0.0
0.1 6.099999999987515 0.0
0.1 6.199999999987222 0.0
0.1 6.299999999986929 0.0
0.1 6.399999999986638 0.0
0.1 6.499999999986345 0.0
0.1 6.599999999986054 0.0
0.1 6.699999999985762 0.0
0.1 6.79999999998547 0.0
0.1 6.899999999985177 0.0
0.1 6.999999999984885 0.0
0.1 7.099999999984593 0.0
0.1 7.199999999984302 0.0
0.1 7.299999999984009 0.0
0.1 7.399999999983717 0.0
0.1 7.499999999983426 0.0
0.1 7.599999999983132 0.0
0.1 7.699999999982841 0.0
0.1 7.799999999982549 0.0
0.1 7.899999999982256 0.0
0.1 7.999999999982034 0.0
0.1 8.099999999981964 0.0
0.1 8.199999999982062 0.0
0.1 8.299999999982214 0.0
0.1 8.399999999982366 0.0
0.1 8.499999999982517 0.0
0.1 8.59999999998267 0.0
0.1 8.699999999982822 0.0
0.1 8.799999999982973 0.0
0.1 8.899999999983125 0.0
0.1 8.999999999983277 0.0
0.1 9.09999999998343 0.0
0.1 9.19999999998358 0.0
0.1 9.299999999983733 0.0
0.1 9.399999999983885 0.0
0.1 9.499999999984038 0.0
0.1 9.599999999984188 0.0
0.1 9.69999999998434 0.0
0.1 9.799999999984493 0.0
0.1 9.899999999984646 0.0
0.1 9.999999999984798 0.0
0.1 10.09999999998495 0.0
0.1 10.1999999999851 0.0
0.1 10.29999999998525 0.0
0.1 10.39999999998541 0.0
0.1 10.49999999998556 0.0
0.1 10.59999999998571 0.0
0.1 10.69999999998586 0.0
0.1 10.79999999998601 0.0
0.1 10.89999999998616 0.0
0.1 10.99999999998632 0.0
0.1 11.09999999998647 0.0
0.1 11.19999999998662 0.0
0.1 11.29999999998677 0.0
0.1 11.39999999998693 0.0
0.1 11.49999999998708 0.0
0.1 11.59999999998723 0.0
0.1 11.69999999998738 0.0
0.1 11.79999999998754 0.0
0.1 11.89999999998769 0.0
0.1 11.99999999998784 0.0
0.1 12.09999999998799 0.0
0.1 12.19999999998814 0.0
0.1 12.2999999999883 0.0
0.1 12.39999999998845 0.0
0.1 12.4999999999886 0.0
0.1 12.59999999998875 0.0
0.1 12.6999999999889 0.0
0.1 12.79999999998905 0.0
0.1 12.89999999998921 0.0
0.1 12.99999999998936 0.0
0.1 13.09999999998951 0.0
0.1 13.19999999998966 0.0
0.1 13.29999999998982 0.0
0.1 13.39999999998997 0.0
0.1 13.49999999999012 0.0
0.1 13.59999999999027 0.0
0.1 13.69999999999042 0.0
0.1 13.79999999999057 0.0
0.1 13.89999999999073 0.0
0.1 13.99999999999088 0.0
0.1 14.09999999999103 0.0
0.1 14.19999999999118 0.0
0.1 14.29999999999134 0.0
0.1 14.39999999999149 0.0
0.1 14.49999999999164 0.0
0.1 14.59999999999179 0.0
0.1 14.69999999999194 0.0
0.1 14.7999999999921 0.0
0.1 14.89999999999225 0.0
0.1 14.9999999999924 0.0
0.1 15.09999999999255 0.0
0.1 15.1999999999927 0.0
0.1 15.29999999999285 0.0
0.1 15.39999999999301 0.0
0.1 15.49999999999316 0.0
0.1 15.59999999999331 0.0
0.1 15.69999999999346 0.0
0.1 15.79999999999362 0.0
0.1 15.89999999999377 0.0
0.1 15.99999999999392 0.0
0.1 16.09999999999407 0.0
0.1 16.19999999999422 0.0
0.1 16.29999999999437 0.0
0.1 16.39999999999453 0.0
0.1 16.49999999999468 0.0
0.1 16.59999999999483 0.0
0.1 16.69999999999498 0.0
0.1 16.79999999999514 0.0
0.1 16.89999999999528 0.0
0.1 16.99999999999544 0.0
0.1 17.09999999999559 0.0
0.1 17.19999999999574 0.0
0.1 17.29999999999589 0.0
0.1 17.39999999999605 0.0
0.1 17.4999999999962 0.0
0.1 17.59999999999635 0.0
0.1 17.6999999999965 0.0
0.1 17.79999999999665 0.0
0.1 17.89999999999681 0.0
0.1 17.99999999999696 0.0
0.1 18.09999999999711 0.0
0.1 18.19999999999726 0.0
0.1 18.29999999999742 0.0
0.1 18.39999999999757 0.0
0.1 18.49999999999772 0.0
0.1 18.59999999999787 0.0
0.1 18.69999999999802 0.0
0.1 18.79999999999818 0.0
0.1 18.89999999999833 0.0
0.1 18.99999999999848 0.0
0.1 19.09999999999863 0.0
0.1 19.19999999999878 0.0
0.1 19.29999999999894 0.0
0.1 19.39999999999909 0.0
0.1 19.49999999999924 0.0
0.1 19.59999999999939 0.0
0.1 19.69999999999955 0.0
0.1 19.7999999999997 0.0
0.1 19.89999999999985 0.0
0.0 19.9 0.0
0.0 19.8 0.0
0.0 19.7 0.0
0.0 19.6 0.0
0.0 19.5 0.0
0.0 19.4 0.0
0.0 19.3 0.0
0.0 19.2 0.0
0.0 19.1 0.0
0.0 19.0 0.0
0.0 18.9 0.0
0.0 18.8 0.0
0.0 18.7 0.0
0.0 18.6 0.0
0.0 18.5 0.0
0.0 18.4 0.0
0.0 18.3 0.0
0.0 18.2 0.0
0.0 18.1 0.0
0.0 18.0 0.0
0.0 17.9 0.0
0.0 17.8 0.0
0.0 17.7 0.0
0.0 17.6 0.0
0.0 17.5 0.0
0.0 17.4 0.0
0.0 17.3 0.0
0.0 17.2 0.0
0.0 17.09999999999999 0.0
0.0 17.0 0.0
0.0 16.9 0.0
0.0 16.8 0.0
0.0 16.7 0.0
0.0 16.59999999999999 0.0
0.0 16.49999999999999 0.0
0.0 16.4 0.0
0.0 16.29999999999999 0.0
0.0 16.2 0.0
0.0 16.09999999999999 0.0
0.0 15.99999999999999 0.0
0.0 15.89999999999999 0.0
0.0 15.79999999999999 0.0
0.0 15.69999999999999 0.0
0.0 15.59999999999999 0.0
0.0 15.49999999999999 0.0
0.0 15.39999999999999 0.0
0.0 15.29999999999999 0.0
0.0 15.19999999999999 0.0
0.0 15.09999999999999 0.0
0.0 14.99999999999999 0.0
0.0 14.89999999999999 0.0
0.0 14.79999999999999 0.0
0.0 14.69999999999999 0.0
0.0 14.59999999999999 0.0
0.0 14.49999999999999 0.0
0.0 14.39999999999999 0.0
0.0 14.29999999999999 0.0
0.0 14.19999999999999 0.0
0.0 14.09999999999999 0.0
0.0 13.99999999999999 0.0
0.0 13.89999999999999 0.0
0.0 13.79999999999999 0.0
0.0 13.69999999999999 0.0
0.0 13.59999999999999 0.0
0.0 13.49999999999999 0.0
0.0 13.39999999999999 0.0
0.0 13.29999999999999 0.0
0.0 13.19999999999999 0.0
0.0 13.09999999999999 0.0
0.0 12.99999999999999 0.0
0.0 12.89999999999999 0.0
0.0 12.79999999999999 0.0
0.0 12.69999999999999 0.0
0.0 12.59999999999999 0.0
0.0 12.49999999999999 0.0
0.0 12.39999999999999 0.0
0.0 12.29999999999999 0.0
0.0 12.19999999999999 0.0
0.0 12.09999999999999 0.0
0.0 11.99999999999999 0.0
0.0 11.89999999999999 0.0
0.0 11.79999999999999 0.0
0.0 11.69999999999999 0.0
0.0 11.59999999999999 0.0
0.0 11.49999999999999 0.0
0.0 11.39999999999999 0.0
0.0 11.29999999999999 0.0
0.0 11.19999999999999 0.0
0.0 11.09999999999999 0.0
0.0 10.99999999999999 0.0
0.0 10.89999999999999 0.0
0.0 10.79999999999999 0.0
0.0 10.69999999999999 0.0
0.0 10.59999999999999 0.0
0.0 10.49999999999999 0.0
0.0 10.39999999999999 0.0
0.0 10.29999999999999 0.0
0.0 10.19999999999999 0.0
0.0 10.09999999999999 0.0
0.0 9.999999999999993 0.0
0.0 9.899999999999993 0.0
0.0 9.799999999999994 0.0
0.0 9.699999999999992 0.0
0.0 9.599999999999993 0.0
0.0 9.499999999999993 0.0
0.0 9.399999999999993 0.0
0.0 9.299999999999995 0.0
0.0 9.199999999999996 0.0
0.0 9.099999999999994 0.0
0.0 8.999999999999995 0.0
0.0 8.899999999999995 0.0
0.0 8.799999999999994 0.0
0.0 8.699999999999994 0.0
0.0 8.599999999999994 0.0
0.0 8.499999999999995 0.0
0.0 8.399999999999995 0.0
0.0 8.299999999999994 0.0
0.0 8.199999999999994 0.0
0.0 8.099999999999994 0.0
0.0 7.999999999999993 0.0
0.0 7.899999999999995 0.0
0.0 7.799999999999995 0.0
0.0 7.699999999999996 0.0
0.0 7.599999999999996 0.0
0.0 7.499999999999996 0.0
0.0 7.399999999999995 0.0
0.0 7.299999999999995 0.0
0.0 7.199999999999996 0.0
0.0 7.099999999999994 0.0
0.0 6.999999999999995 0.0
0.0 6.899999999999995 0.0
0.0 6.799999999999995 0.0
0.0 6.699999999999996 0.0
0.0 6.599999999999994 0.0
0.0 6.499999999999995 0.0
0.0 6.399999999999997 0.0
0.0 6.299999999999997 0.0
0.0 6.199999999999996 0.0
0.0 6.099999999999996 0.0
0.0 5.999999999999996 0.0
0.0 5.899999999999997 0.0
0.0 5.799999999999997 0.0
0.0 5.699999999999996 0.0
0.0 5.599999999999996 0.0
0.0 5.499999999999996 0.0
0.0 5.399999999999995 0.0
0.0 5.299999999999995 0.0
0.0 5.199999999999996 0.0
0.0 5.099999999999996 0.0
0.0 4.999999999999998 0.0
0.0 4.899999999999999 0.0
0.0 4.799999999999997 0.0
0.0 4.699999999999998 0.0
0.0 4.599999999999998 0.0
0.0 4.499999999999996 0.0
0.0 4.399999999999997 0.0
0.0 4.299999999999997 0.0
0.0 4.199999999999998 0.0
0.0 4.099999999999998 0.0
0.0 3.999999999999996 0.0
0.0 3.899999999999999 0.0
0.0 3.799999999999997 0.0
0.0 3.699999999999996 0.0
0.0 3.599999999999998 0.0
0.0 3.5 0.0
0.0 3.399999999999999 0.0
0.0 3.299999999999997 0.0
0.0 3.199999999999999 0.0
0.0 3.099999999999998 0.0
0.0 3.0 0.0
0.0 2.899999999999999 0.0
0.0 2.799999999999997 0.0
0.0 2.699999999999999 0.0
0.0 2.599999999999998 0.0
0.0 2.499999999999996 0.0
0.0 2.399999999999999 0.0
0.0 2.299999999999997 0.0
0.0 2.199999999999999 0.0
0.0 2.100000000000001 0.0
0.0 2.0 0.0
0.0 1.899999999999999 0.0
0.0 1.800000000000001 0.0
0.0 1.699999999999999 0.0
0.0 1.599999999999998 0.0
0.0 1.5 0.0
0.0 1.399999999999999 0.0
0.0 1.299999999999997 0.0
0.0 1.199999999999999 0.0
0.0 1.099999999999998 0.0
0.0 1.0 0.0
0.0 0.8999999999999986 0.0
0.0 0.8000000000000007 0.0
0.0 0.6999999999999993 0.0
0.0 0.6000000000000014 0.0
0.0 0.5 0.0
0.0 0.3999999999999986 0.0
0.0 0.3000000000000007 0.0
0.0 0.1999999999999993 0.0
[...]
POINT_DATA 804
VECTORS displacement double
0.0 0.0 0.0
0.0 0.0 0.0
0.0 -0.0018007798319905882 0.0
0.0 -0.0018007798319906046 0.0
0.0 0.0 0.0
0.0 0.0 0.0
0.0 -0.0018007798319905899 0.0
0.0 -0.001800779831990607 0.0
0.0 1.928908790978532e-157 0.0
0.0 -9.482149740532382e-157 0.0
0.0 3.824845531240731e-156 0.0
0.0 -9.207868008305587e-156 0.0
0.0 -4.43399827292333e-155 0.0
0.0 9.800288064958688e-154 0.0
0.0 -1.0953115502579697e-152 0.0
0.0 1.0148437025638795e-151 0.0
0.0 -8.593690292882867e-151 0.0
0.0 6.899755859104067e-150 0.0
0.0 -5.347135193818343e-149 0.0
0.0 4.0402287530501815e-148 0.0
0.0 -2.9949307174117803e-147 0.0
0.0 2.1870002290098847e-146 0.0
0.0 -1.5777348585463388e-145 0.0
0.0 1.1267843378398526e-144 0.0
0.0 -7.978840014513378e-144 0.0
0.0 5.608469053871845e-143 0.0
0.0 -3.917022314340732e-142 0.0
0.0 2.7201607413849784e-141 0.0
0.0 -1.879395845287823e-140 0.0
0.0 1.2925242177336338e-139 0.0
0.0 -8.851788773713264e-139 0.0
0.0 6.03867728593685e-138 0.0
0.0 -4.1048243409096246e-137 0.0
0.0 2.780957043892244e-136 0.0
0.0 -1.8781518109745793e-135 0.0
0.0 1.2646810213494483e-134 0.0
0.0 -8.492037375145913e-134 0.0
0.0 5.686973996792709e-133 0.0
0.0 -3.798738612802269e-132 0.0
0.0 2.531222828197607e-131 0.0
0.0 -1.6826454554515778e-130 0.0
0.0 1.115988796437711e-129 0.0
0.0 -7.385188612601664e-129 0.0
0.0 4.876674978933214e-128 0.0
0.0 -3.2134327717813363e-127 0.0
0.0 2.1130885616921145e-126 0.0
0.0 -1.386713095442539e-125 0.0
0.0 9.082200310089826e-125 0.0
0.0 -5.936686983532101e-124 0.0
0.0 3.8730854675240265e-123 0.0
0.0 -2.521967227729125e-122 0.0
0.0 1.639076710288521e-121 0.0
0.0 -1.0632692755297655e-120 0.0
0.0 6.884569268703346e-120 0.0
0.0 -4.44942613025079e-119 0.0
0.0 2.8703049287074953e-118 0.0
0.0 -1.8482084118626893e-117 0.0
0.0 1.1878834003773292e-116 0.0
0.0 -7.620734540431688e-116 0.0
0.0 4.8799944092814835e-115 0.0
0.0 -3.119175316322099e-114 0.0
0.0 1.990013078664309e-113 0.0
0.0 -1.26725706019047e-112 0.0
0.0 8.054941340249863e-112 0.0
0.0 -5.110277001167975e-111 0.0
0.0 3.235979280414516e-110 0.0
0.0 -2.0452218008440972e-109 0.0
0.0 1.2901552713744148e-108 0.0
0.0 -8.12275354381969e-108 0.0
0.0 5.104068443159564e-107 0.0
0.0 -3.200907792160206e-106 0.0
0.0 2.003383970420119e-105 0.0
0.0 -1.2513529654277732e-104 0.0
0.0 7.800270276949067e-104 0.0
0.0 -4.852243569566794e-103 0.0
0.0 3.0120828047381887e-102 0.0
0.0 -1.865821787852949e-101 0.0
0.0 1.1532918442680347e-100 0.0
0.0 -7.113121688602027e-100 0.0
0.0 4.37742410325058e-99 0.0
0.0 -2.687812882528413e-98 0.0
0.0 1.6465894256132731e-97 0.0
0.0 -1.006376641060244e-96 0.0
0.0 6.136304645895207e-96 0.0
0.0 -3.732550909455671e-95 0.0
0.0 2.2648395181083726e-94 0.0
0.0 -1.3708231812008114e-93 0.0
0.0 8.27591832455244e-93 0.0
0.0 -4.983323567218523e-92 0.0
0.0 2.992722095132152e-91 0.0
0.0 -1.792392917984853e-90 0.0
0.0 1.0705167437566214e-89 0.0
0.0 -6.375580412505235e-89 0.0
0.0 3.78602308446308e-88 0.0
0.0 -2.24157813195674e-87 0.0
0.0 1.3231221366599288e-86 0.0
0.0 -7.785530377255345e-86 0.0
0.0 4.566504131002922e-85 0.0
0.0 -2.669625854358e-84 0.0
0.0 1.5554271065644006e-83 0.0
0.0 -9.031123741214273e-83 0.0
0.0 5.224988219439444e-82 0.0
0.0 -3.0118772615833274e-81 0.0
0.0 1.7296309480082966e-80 0.0
0.0 -9.894384814824308e-80 0.0
0.0 5.637649310876532e-79 0.0
0.0 -3.1991656092042306e-78 0.0
0.0 1.8078503760000922e-77 0.0
0.0 -1.0172725868428593e-76 0.0
0.0 5.69942011080425e-76 0.0
0.0 -3.179242301434032e-75 0.0
0.0 1.7656939673765593e-74 0.0
0.0 -9.764100394991832e-74 0.0
0.0 5.37699371132905e-73 0.0
0.0 -2.9495738277949224e-72 0.0
0.0 1.6124754782775062e-71 0.0
0.0 -8.791299861552062e-71 0.0
0.0 4.785204486879045e-70 0.0
0.0 -2.6043073932115515e-69 0.0
0.0 1.4201364777398473e-68 0.0
0.0 -7.780400955778297e-68 0.0
0.0 4.29729600320004e-67 0.0
0.0 -2.4024361451803056e-66 0.0
0.0 1.3653170735860934e-65 0.0
0.0 -7.919243518623534e-65 0.0
0.0 4.7023789712727166e-64 0.0
0.0 -2.8624050172435965e-63 0.0
0.0 1.7850234235232256e-62 0.0
0.0 -1.1374975769369305e-61 0.0
0.0 7.378236741019998e-61 0.0
0.0 -4.849226633760666e-60 0.0
0.0 3.2146582363044773e-59 0.0
0.0 -2.140693600241045e-58 0.0
0.0 1.4269993791908752e-57 0.0
0.0 -9.49562911714505e-57 0.0
0.0 6.2935164813840145e-56 0.0
0.0 -4.1474512685951745e-55 0.0
0.0 2.713911886997512e-54 0.0
0.0 -1.7614089530691362e-53 0.0
0.0 1.1328619166582325e-52 0.0
0.0 -7.214379249743411e-52 0.0
0.0 4.545790443610626e-51 0.0
0.0 -2.8321286765163965e-50 0.0
0.0 1.743637506777501e-49 0.0
0.0 -1.0606068035660885e-48 0.0
0.0 6.383213226521603e-48 0.0
0.0 -3.8322844331958647e-47 0.0
0.0 2.3735215750087117e-46 0.0
0.0 -1.6934127388674535e-45 0.0
0.0 1.719513733512078e-44 0.0
0.0 -2.6764141432523432e-43 0.0
0.0 5.268979486090461e-42 0.0
0.0 -1.108707718059569e-40 0.0
0.0 2.3403435986246893e-39 0.0
0.0 -4.865342054549099e-38 0.0
0.0 9.904398951502176e-37 0.0
0.0 -1.9691283055837835e-35 0.0
0.0 3.815582702637171e-34 0.0
0.0 -7.190803257965807e-33 0.0
0.0 1.314935097594111e-31 0.0
0.0 -2.326850817532236e-30 0.0
0.0 3.971901439221764e-29 0.0
0.0 -6.515770160744937e-28 0.0
0.0 1.0225924111203822e-26 0.0
0.0 -1.5267835651803122e-25 0.0
0.0 2.1532769221876633e-24 0.0
0.0 -2.841786131308792e-23 0.0
0.0 3.464074347319619e-22 0.0
0.0 -3.824905613325516e-21 0.0
0.0 3.702932309784682e-20 0.0
0.0 -2.943726674876647e-19 0.0
0.0 1.5871863161021305e-18 0.0
0.0 3.733412903329928e-19 0.0
0.0 -1.3527601307729618e-16 0.0
0.0 1.786902475611523e-15 0.0
0.0 -1.1655308515754366e-14 0.0
0.0 -3.0954078599729578e-15 0.0
0.0 8.87487858535948e-13 0.0
0.0 -7.747746224242525e-12 0.0
0.0 -1.3018891902277938e-12 0.0
0.0 5.173677910205636e-10 0.0
0.0 -2.388585675614983e-09 0.0
0.0 -2.333660925284401e-08 0.0
0.0 1.6756130175404658e-07 0.0
0.0 1.311127447956358e-06 0.0
0.0 -4.866423798290472e-06 0.0
0.0 -8.185369484057785e-05 0.0
0.0 -0.00039712401335502965 0.0
0.0 -0.0010607544791164615 0.0
0.0 -0.0017500786262600095 0.0
0.0 -0.0019179759276601587 0.0
0.0 -0.0017241106771438192 0.0
0.0 -0.001763796562933741 0.0
0.0 -0.001845716951924137 0.0
0.0 -0.0017470714411572837 0.0
0.0 -0.0017989889749345314 0.0
0.0 -0.0018041629626137777 0.0
0.0 -0.001760458239351668 0.0
0.0 -0.0018183735300555544 0.0
0.0 -0.0017645558531590463 0.0
0.0 -0.0018046197697460004 0.0
0.0 -0.0017810787120441788 0.0
0.0 -0.0017893948451026902 0.0
0.0 -0.0017932638997825558 0.0
0.0 -0.0017805492225667575 0.0
0.0 -0.0017991565231239163 0.0
0.0 -0.001777034704648389 0.0
0.0 -0.0017770347046483816 0.0
0.0 -0.001799156523123933 0.0
0.0 -0.0017805492225667578 0.0
0.0 -0.001793263899782578 0.0
0.0 -0.00178939484510268 0.0
0.0 -0.0017810787120441014 0.0
0.0 -0.0018046197697461446 0.0
0.0 -0.0017645558531589637 0.0
0.0 -0.0018183735300555265 0.0
0.0 -0.0017604582393520272 0.0
0.0 -0.0018041629626129364 0.0
0.0 -0.0017989889749357342 0.0
0.0 -0.0017470714411564339 0.0
0.0 -0.0018457169519233954 0.0
0.0 -0.0017637965629367339 0.0
0.0 -0.0017241106771408604 0.0
0.0 -0.001917975927657297 0.0
0.0 -0.0017500786262730347 0.0
0.0 -0.001060754479138707 0.0
0.0 -0.0003971240133703201 0.0
0.0 -8.185369484586087e-05 0.0
0.0 -4.866423799052105e-06 0.0
0.0 1.3111274480058685e-06 0.0
0.0 1.6756130177738064e-07 0.0
0.0 -2.3336609253650984e-08 0.0
0.0 -2.388585676102397e-09 0.0
0.0 5.173677910647337e-10 0.0
0.0 -1.301889184576239e-12 0.0
0.0 -7.747746225640108e-12 0.0
0.0 8.874878586115575e-13 0.0
0.0 -3.0954078473853544e-15 0.0
0.0 -1.165530851888861e-14 0.0
0.0 1.7869024759360863e-15 0.0
0.0 -1.3527601308777676e-16 0.0
0.0 3.7334128758324954e-19 0.0
0.0 1.5871863167812579e-18 0.0
0.0 -2.9437266758648184e-19 0.0
0.0 3.7029323109341705e-20 0.0
0.0 -3.8249056145141796e-21 0.0
0.0 3.4640743485110124e-22 0.0
0.0 -2.841786132590407e-23 0.0
0.0 2.1532769237772222e-24 0.0
0.0 -1.5267835673498817e-25 0.0
0.0 1.0225924138866556e-26 0.0
0.0 -6.515770182662634e-28 0.0
0.0 3.971901407812342e-29 0.0
0.0 -2.3268505931208704e-30 0.0
0.0 1.3149343254273043e-31 0.0
0.0 -7.190781807936807e-33 0.0
0.0 3.8155294938510084e-34 0.0
0.0 -1.9690057856997793e-35 0.0
0.0 9.90172856974447e-37 0.0
0.0 -4.859769333348837e-38 0.0
0.0 2.3291251688961502e-39 0.0
0.0 -1.0868081257546396e-40 0.0
0.0 4.852826942843286e-42 0.0
0.0 -1.904324573214607e-43 0.0
0.0 3.1766149984957793e-45 0.0
0.0 8.02261251358891e-46 0.0
0.0 -1.9897955170577254e-46 0.0
0.0 3.669694755866265e-47 0.0
0.0 -6.31582298701012e-48 0.0
0.0 1.057968998958749e-48 0.0
0.0 -1.742857788815347e-49 0.0
0.0 2.8323807084775235e-50 0.0
0.0 -4.546924237871872e-51 0.0
0.0 7.2166442208156e-52 0.0
0.0 -1.1332607809875686e-52 0.0
0.0 1.7620802880920216e-53 0.0
0.0 -2.715012189856777e-54 0.0
0.0 4.1492180793379426e-55 0.0
0.0 -6.296304154854771e-56 0.0
0.0 9.499959150118055e-57 0.0
0.0 -1.4276624515443994e-57 0.0
0.0 2.1416958007391585e-58 0.0
0.0 -3.2161547898999283e-59 0.0
0.0 4.8514363211524466e-60 0.0
0.0 -7.381465070401783e-61 0.0
0.0 1.137964560079285e-61 0.0
0.0 -1.7856925936423407e-62 0.0
0.0 2.8633553872180585e-63 0.0
0.0 -4.70371727945933e-64 0.0
0.0 7.921112884153567e-65 0.0
0.0 -1.3655761680282083e-65 0.0
0.0 2.4027925837768157e-66 0.0
0.0 -4.29778285724096e-67 0.0
0.0 7.781061366426516e-68 0.0
0.0 -1.4202254664182974e-68 0.0
0.0 2.6044265328813574e-69 0.0
0.0 -4.7853630005569534e-70 0.0
0.0 8.791509488217827e-71 0.0
0.0 -1.6125030376944354e-71 0.0
0.0 2.9496098529288626e-72 0.0
0.0 -5.3770405404679226e-73 0.0
0.0 9.764160937384772e-74 0.0
0.0 -1.7657017529211518e-74 0.0
0.0 3.179252261293834e-75 0.0
0.0 -5.699432787237995e-76 0.0
0.0 1.0172741921633942e-76 0.0
0.0 -1.807852398950323e-77 0.0
0.0 3.1991681461004644e-78 0.0
0.0 -5.637652477143987e-79 0.0
0.0 9.894388748080526e-80 0.0
0.0 -1.729631434358755e-80 0.0
0.0 3.0118778602348157e-81 0.0
0.0 -5.2249889530521185e-82 0.0
0.0 9.031124636326492e-83 0.0
0.0 -1.5554272153249946e-83 0.0
0.0 2.6696259859832425e-84 0.0
0.0 -4.566504289713954e-85 0.0
0.0 7.785530568002687e-86 0.0
0.0 -1.323122159524195e-86 0.0
0.0 2.241578159314766e-87 0.0
0.0 -3.786023117181073e-88 0.0
0.0 6.375580451682673e-89 0.0
0.0 -1.0705167484653672e-89 0.0
0.0 1.7923929236843003e-90 0.0
0.0 -2.9927221021089443e-91 0.0
0.0 4.98332357590058e-92 0.0
0.0 -8.275918335600217e-93 0.0
0.0 1.37082318264567e-93 0.0
0.0 -2.2648395200569345e-94 0.0
0.0 3.732550912167765e-95 0.0
0.0 -6.136304649786254e-96 0.0
0.0 1.0063766416337193e-96 0.0
0.0 -1.646589426477372e-97 0.0
0.0 2.6878128838526876e-98 0.0
0.0 -4.377424105304959e-99 0.0
0.0 7.113121691815126e-100 0.0
0.0 -1.1532918447730024e-100 0.0
0.0 1.8658217886485758e-101 0.0
0.0 -3.0120828059928155e-102 0.0
0.0 4.852243571544412e-103 0.0
0.0 -7.800270280062521e-104 0.0
0.0 1.2513529659170762e-104 0.0
0.0 -2.0033839711874653e-105 0.0
0.0 3.2009077933608726e-106 0.0
0.0 -5.1040684450337135e-107 0.0
0.0 8.122753546737742e-108 0.0
0.0 -1.2901552718275814e-108 0.0
0.0 2.045221801546098e-109 0.0
0.0 -3.2359792814991674e-110 0.0
0.0 5.110277002839691e-111 0.0
0.0 -8.054941342819716e-112 0.0
0.0 1.267257060584532e-112 0.0
0.0 -1.9900130792670294e-113 0.0
0.0 3.119175317241584e-114 0.0
0.0 -4.879994410680747e-115 0.0
0.0 7.620734542555506e-116 0.0
0.0 -1.1878834006988485e-116 0.0
0.0 1.8482084123481628e-117 0.0
0.0 -2.8703049294386383e-118 0.0
0.0 4.449426131348837e-119 0.0
0.0 -6.884569270347975e-120 0.0
0.0 1.0632692757754078e-120 0.0
0.0 -1.639076710654306e-121 0.0
0.0 2.52196722827222e-122 0.0
0.0 -3.873085468327891e-123 0.0
0.0 5.936686984718227e-124 0.0
0.0 -9.082200311834341e-125 0.0
0.0 1.3867130956981902e-125 0.0
0.0 -2.1130885620654772e-126 0.0
0.0 3.2134327723245593e-127 0.0
0.0 -4.876674979720312e-128 0.0
0.0 7.385188613737495e-129 0.0
0.0 -1.1159887966009065e-129 0.0
0.0 1.6826454556849324e-130 0.0
0.0 -2.531222828529501e-131 0.0
0.0 3.7987386132718334e-132 0.0
0.0 -5.686973997452902e-133 0.0
0.0 8.492037376068181e-134 0.0
0.0 -1.2646810214773526e-134 0.0
0.0 1.8781518111505153e-135 0.0
0.0 -2.780957044131832e-136 0.0
0.0 4.1048243412330956e-137 0.0
0.0 -6.038677286367102e-138 0.0
0.0 8.851788774283791e-139 0.0
0.0 -1.2925242178089716e-139 0.0
0.0 1.8793958453872986e-140 0.0
0.0 -2.7201607415162015e-141 0.0
0.0 3.917022314513329e-142 0.0
0.0 -5.608469054097731e-143 0.0
0.0 7.97884001480723e-144 0.0
0.0 -1.1267843378776947e-144 0.0
0.0 1.577734858594388e-145 0.0
0.0 -2.1870002290698245e-146 0.0
0.0 2.994930717484626e-147 0.0
0.0 -4.040228753135253e-148 0.0
0.0 5.34713519391203e-149 0.0
0.0 -6.89975585919751e-150 0.0
0.0 8.593690292955889e-151 0.0
0.0 -1.0148437025652684e-151 0.0
0.0 1.0953115502464448e-152 0.0
0.0 -9.800288064600291e-154 0.0
0.0 4.4339982721451664e-155 0.0
0.0 9.207868009765643e-156 0.0
0.0 -3.8248455314931203e-156 0.0
0.0 9.482149740945412e-157 0.0
0.0 -1.92890879104206e-157 0.0
0.0 -1.9289087909785367e-157 0.0
0.0 9.482149740532416e-157 0.0
0.0 -3.8248455312407553e-156 0.0
0.0 9.20786800830581e-156 0.0
0.0 4.433998272923095e-155 0.0
0.0 -9.800288064958453e-154 0.0
0.0 1.0953115502579527e-152 0.0
0.0 -1.0148437025638641e-151 0.0
0.0 8.593690292882708e-151 0.0
0.0 -6.899755859103921e-150 0.0
0.0 5.3471351938182255e-149 0.0
0.0 -4.0402287530500655e-148 0.0
0.0 2.9949307174116814e-147 0.0
0.0 -2.1870002290097976e-146 0.0
0.0 1.5777348585462595e-145 0.0
0.0 -1.1267843378397817e-144 0.0
0.0 7.97884001451272e-144 0.0
0.0 -5.608469053871241e-143 0.0
0.0 3.9170223143401985e-142 0.0
0.0 -2.720160741384483e-141 0.0
0.0 1.8793958452873848e-140 0.0
0.0 -1.2925242177332406e-139 0.0
0.0 8.851788773709714e-139 0.0
0.0 -6.038677285933697e-138 0.0
0.0 4.104824340906784e-137 0.0
0.0 -2.7809570438897083e-136 0.0
0.0 1.8781518109723132e-135 0.0
0.0 -1.2646810213474247e-134 0.0
0.0 8.49203737512787e-134 0.0
0.0 -5.686973996776639e-133 0.0
0.0 3.798738612787961e-132 0.0
0.0 -2.5312228281848956e-131 0.0
0.0 1.6826454554402927e-130 0.0
0.0 -1.1159887964277051e-129 0.0
0.0 7.38518861251298e-129 0.0
0.0 -4.876674978854726e-128 0.0
0.0 3.2134327717119733e-127 0.0
0.0 -2.1130885616308985e-126 0.0
0.0 1.3867130953885821e-125 0.0
0.0 -9.082200309614722e-125 0.0
0.0 5.936686983114318e-124 0.0
0.0 -3.8730854671571236e-123 0.0
0.0 2.521967227407293e-122 0.0
0.0 -1.639076710006598e-121 0.0
0.0 1.0632692752831114e-120 0.0
0.0 -6.88456926654831e-120 0.0
0.0 4.449426128370378e-119 0.0
0.0 -2.8703049270689704e-118 0.0
0.0 1.84820841043688e-117 0.0
0.0 -1.1878833991383625e-116 0.0
0.0 7.620734529680822e-116 0.0
0.0 -4.8799943999660645e-115 0.0
0.0 3.1191753082622608e-114 0.0
0.0 -1.990013071701177e-113 0.0
0.0 1.2672570541838687e-112 0.0
0.0 -8.054941288514244e-112 0.0
0.0 5.110276956676643e-111 0.0
0.0 -3.235979242213336e-110 0.0
0.0 2.0452217680963205e-109 0.0
0.0 -1.2901552433471552e-108 0.0
0.0 8.122753304344239e-108 0.0
0.0 -5.1040682388861526e-107 0.0
0.0 3.200907618211524e-106 0.0
0.0 -2.0033838225512658e-105 0.0
0.0 1.2513528399501907e-104 0.0
0.0 -7.800269214087544e-104 0.0
0.0 4.852242670907291e-103 0.0
0.0 -3.0120820463210025e-102 0.0
0.0 1.8658211489985368e-101 0.0
0.0 -1.153291307159358e-100 0.0
0.0 7.113117181737934e-100 0.0
0.0 -4.3774203290598636e-99 0.0
0.0 2.6878097282866602e-98 0.0
0.0 -1.64658679490859e-97 0.0
0.0 1.0063744515901332e-96 0.0
0.0 -6.136286462327708e-96 0.0
0.0 3.73253584077604e-95 0.0
0.0 -2.264827058346867e-94 0.0
0.0 1.370812901876503e-93 0.0
0.0 -8.275833714674428e-93 0.0
0.0 4.9832540871821186e-92 0.0
0.0 -2.9926651755498155e-91 0.0
0.0 1.792346401626599e-90 0.0
0.0 -1.0704788235183812e-89 0.0
0.0 6.375272068064699e-89 0.0
0.0 -3.785773004674721e-88 0.0
0.0 2.2413758414720872e-87 0.0
0.0 -1.3229589431220854e-86 0.0
0.0 7.784217462340475e-86 0.0
0.0 -4.5654508336182845e-85 0.0
0.0 2.66878325705233e-84 0.0
0.0 -1.5547550331433023e-83 0.0
0.0 9.02577916830804e-83 0.0
0.0 -5.2207510093869824e-82 0.0
0.0 3.0085284728847953e-81 0.0
0.0 -1.7269927629355614e-80 0.0
0.0 9.873669076416901e-80 0.0
0.0 -5.621437186126021e-79 0.0
0.0 3.1865214691936805e-78 0.0
0.0 -1.798023563236893e-77 0.0
0.0 1.0096627926427588e-76 0.0
0.0 -5.640707503294022e-76 0.0
0.0 3.134114111704229e-75 0.0
0.0 -1.731141361880526e-74 0.0
0.0 9.500596768374326e-74 0.0
0.0 -5.176860085107472e-73 0.0
0.0 2.798205829068366e-72 0.0
0.0 -1.498482143646447e-71 0.0
0.0 7.936617114042337e-71 0.0
0.0 -4.1472981226409216e-70 0.0
0.0 2.1304153086936829e-69 0.0
0.0 -1.0697769634884209e-68 0.0
0.0 5.20289915466161e-68 0.0
0.0 -2.4107371857159044e-67 0.0
0.0 1.028835195115822e-66 0.0
0.0 -3.706016864558e-66 0.0
0.0 7.559849477486909e-66 0.0
0.0 4.2644217252328556e-65 0.0
0.0 -7.879657542209546e-64 0.0
0.0 7.971278909229863e-63 0.0
0.0 -6.774308923310779e-62 0.0
0.0 5.294572369884966e-61 0.0
0.0 -3.9393470773485944e-60 0.0
0.0 2.8371643864268096e-59 0.0
0.0 -1.996057552411424e-58 0.0
0.0 1.3791670286410386e-57 0.0
0.0 -9.389290553724904e-57 0.0
0.0 6.310878047196256e-56 0.0
0.0 -4.192833600058182e-55 0.0
0.0 2.755328539375956e-54 0.0
0.0 -1.791486343082776e-53 0.0
0.0 1.1524966633626608e-52 0.0
0.0 -7.334644941609173e-52 0.0
0.0 4.616316389895883e-51 0.0
0.0 -2.872167573534248e-50 0.0
0.0 1.7657933944528885e-49 0.0
0.0 -1.0726094670645153e-48 0.0
0.0 6.447055253421063e-48 0.0
0.0 -3.8656865151533957e-47 0.0
0.0 2.390728105644271e-46 0.0
0.0 -1.7021407190654353e-45 0.0
0.0 1.7238696681762524e-44 0.0
0.0 -2.6785489467871854e-43 0.0
0.0 5.270003406349295e-42 0.0
0.0 -1.1087555154873691e-40 0.0
0.0 2.340365120453671e-39 0.0
0.0 -4.865351259797871e-38 0.0
0.0 9.904402583440713e-37 0.0
0.0 -1.9691284289411454e-35 0.0
0.0 3.8155827305759965e-34 0.0
0.0 -7.190803253019965e-33 0.0
0.0 1.3149350963189875e-31 0.0
0.0 -2.3268508163521698e-30 0.0
0.0 3.9719014383529696e-29 0.0
0.0 -6.515770160170262e-28 0.0
0.0 1.0225924110847522e-26 0.0
0.0 -1.5267835651589613e-25 0.0
0.0 2.1532769221753786e-24 0.0
0.0 -2.8417861313015604e-23 0.0
0.0 3.464074347315666e-22 0.0
0.0 -3.8249056133232974e-21 0.0
0.0 3.702932309783384e-20 0.0
0.0 -2.9437266748758765e-19 0.0
0.0 1.5871863161016661e-18 0.0
0.0 3.7334129033564706e-19 0.0
0.0 -1.352760130773262e-16 0.0
0.0 1.7869024756116313e-15 0.0
0.0 -1.1655308515755619e-14 0.0
0.0 -3.0954078599668484e-15 0.0
0.0 8.874878585358619e-13 0.0
0.0 -7.747746224242333e-12 0.0
0.0 -1.3018891902271454e-12 0.0
0.0 5.173677910205444e-10 0.0
0.0 -2.3885856756148043e-09 0.0
0.0 -2.333660925284329e-08 0.0
0.0 1.6756130175404899e-07 0.0
0.0 1.3111274479562692e-06 0.0
0.0 -4.866423798290307e-06 0.0
0.0 -8.185369484057938e-05 0.0
0.0 -0.00039712401335504114 0.0
0.0 -0.001060754479116466 0.0
0.0 -0.0017500786262600162 0.0
0.0 -0.0019179759276601635 0.0
0.0 -0.0017241106771438142 0.0
0.0 -0.0017637965629337426 0.0
0.0 -0.001845716951924139 0.0
0.0 -0.00174707144115728 0.0
0.0 -0.0017989889749345297 0.0
0.0 -0.0018041629626137745 0.0
0.0 -0.0017604582393516727 0.0
0.0 -0.0018183735300555618 0.0
0.0 -0.0017645558531590507 0.0
0.0 -0.0018046197697460088 0.0
0.0 -0.001781078712044184 0.0
0.0 -0.0017893948451026926 0.0
0.0 -0.0017932638997825588 0.0
0.0 -0.001780549222566766 0.0
0.0 -0.0017991565231239251 0.0
0.0 -0.0017770347046483855 0.0
0.0 -0.001777034704648383 0.0
0.0 -0.001799156523123937 0.0
0.0 -0.0017805492225667506 0.0
0.0 -0.0017932638997825664 0.0
0.0 -0.0017893948451026902 0.0
0.0 -0.0017810787120440955 0.0
0.0 -0.0018046197697461387 0.0
0.0 -0.0017645558531589522 0.0
0.0 -0.0018183735300555139 0.0
0.0 -0.0017604582393520272 0.0
0.0 -0.001804162962612939 0.0
0.0 -0.0017989889749357244 0.0
0.0 -0.0017470714411564393 0.0
0.0 -0.0018457169519233935 0.0
0.0 -0.0017637965629367371 0.0
0.0 -0.0017241106771408647 0.0
0.0 -0.001917975927657291 0.0
0.0 -0.001750078626273031 0.0
0.0 -0.0010607544791387093 0.0
0.0 -0.0003971240133703112 0.0
0.0 -8.185369484585817e-05 0.0
0.0 -4.866423799052837e-06 0.0
0.0 1.3111274480059755e-06 0.0
0.0 1.675613017773721e-07 0.0
0.0 -2.333660925365083e-08 0.0
0.0 -2.3885856761027262e-09 0.0
0.0 5.17367791064776e-10 0.0
0.0 -1.301889184575523e-12 0.0
0.0 -7.747746225640481e-12 0.0
0.0 8.874878586115421e-13 0.0
0.0 -3.0954078473849363e-15 0.0
0.0 -1.1655308518888197e-14 0.0
0.0 1.7869024759359593e-15 0.0
0.0 -1.3527601308774536e-16 0.0
0.0 3.733412875777197e-19 0.0
0.0 1.5871863167821018e-18 0.0
0.0 -2.943726675865957e-19 0.0