# vtk DataFile Version 2.0
data_211
ASCII
DATASET UNSTRUCTURED_GRID
POINTS 804 float
0.0 0.0 0.0
0.1 0.0 0.0
0.1 20.0 0.0
0.0 20.0 0.0
0.0 0.0 -0.1
0.1 0.0 -0.1
0.1 20.0 -0.1
0.0 20.0 -0.1
0.1 0.09999999999992462 0.0
0.1 0.1999999999998517 0.0
0.1 0.2999999999997818 0.0
0.1 0.399999999999712 0.0
0.1 0.4999999999996377 0.0
0.1 0.5999999999995541 0.0
0.1 0.6999999999994495 0.0
0.1 0.7999999999993355 0.0
0.1 0.8999999999992101 0.0
0.1 0.999999999999102 0.0
0.1 1.099999999999006 0.0
0.1 1.199999999998936 0.0
0.1 1.299999999998867 0.0
0.1 1.399999999998797 0.0
0.1 1.499999999998727 0.0
0.1 1.599999999998657 0.0
0.1 1.699999999998587 0.0
0.1 1.799999999998517 0.0
0.1 1.899999999998447 0.0
0.1 1.999999999998378 0.0
0.1 2.099999999998308 0.0
0.1 2.199999999998238 0.0
0.1 2.299999999998168 0.0
0.1 2.399999999998067 0.0
0.1 2.499999999997942 0.0
0.1 2.599999999997706 0.0
0.1 2.699999999997444 0.0
0.1 2.799999999997153 0.0
0.1 2.899999999996861 0.0
0.1 2.999999999996569 0.0
0.1 3.099999999996277 0.0
0.1 3.199999999995984 0.0
0.1 3.299999999995693 0.0
0.1 3.399999999995401 0.0
0.1 3.499999999995108 0.0
0.1 3.599999999994816 0.0
0.1 3.699999999994525 0.0
0.1 3.799999999994232 0.0
0.1 3.89999999999394 0.0
0.1 3.999999999993648 0.0
0.1 4.099999999993356 0.0
0.1 4.199999999993064 0.0
0.1 4.299999999992772 0.0
0.1 4.399999999992479 0.0
0.1 4.499999999992188 0.0
0.1 4.599999999991895 0.0
0.1 4.699999999991603 0.0
0.1 4.799999999991311 0.0
0.1 4.899999999991019 0.0
0.1 4.999999999990727 0.0
0.1 5.099999999990436 0.0
0.1 5.199999999990144 0.0
0.1 5.299999999989851 0.0
0.1 5.399999999989559 0.0
0.1 5.499999999989267 0.0
0.1 5.599999999988975 0.0
0.1 5.699999999988683 0.0
0.1 5.799999999988391 0.0
0.1 5.899999999988099 0.0
0.1 5.999999999987806 0.0
0.1 6.099999999987515 0.0
0.1 6.199999999987222 0.0
0.1 6.299999999986929 0.0
0.1 6.399999999986638 0.0
0.1 6.499999999986345 0.0
0.1 6.599999999986054 0.0
0.1 6.699999999985762 0.0
0.1 6.79999999998547 0.0
0.1 6.899999999985177 0.0
0.1 6.999999999984885 0.0
0.1 7.099999999984593 0.0
0.1 7.199999999984302 0.0
0.1 7.299999999984009 0.0
0.1 7.399999999983717 0.0
0.1 7.499999999983426 0.0
0.1 7.599999999983132 0.0
0.1 7.699999999982841 0.0
0.1 7.799999999982549 0.0
0.1 7.899999999982256 0.0
0.1 7.999999999982034 0.0
0.1 8.099999999981964 0.0
0.1 8.199999999982062 0.0
0.1 8.299999999982214 0.0
0.1 8.399999999982366 0.0
0.1 8.499999999982517 0.0
0.1 8.59999999998267 0.0
0.1 8.699999999982822 0.0
0.1 8.799999999982973 0.0
0.1 8.899999999983125 0.0
0.1 8.999999999983277 0.0
0.1 9.09999999998343 0.0
0.1 9.19999999998358 0.0
0.1 9.299999999983733 0.0
0.1 9.399999999983885 0.0
0.1 9.499999999984038 0.0
0.1 9.599999999984188 0.0
0.1 9.69999999998434 0.0
0.1 9.799999999984493 0.0
0.1 9.899999999984646 0.0
0.1 9.999999999984798 0.0
0.1 10.09999999998495 0.0
0.1 10.1999999999851 0.0
0.1 10.29999999998525 0.0
0.1 10.39999999998541 0.0
0.1 10.49999999998556 0.0
0.1 10.59999999998571 0.0
0.1 10.69999999998586 0.0
0.1 10.79999999998601 0.0
0.1 10.89999999998616 0.0
0.1 10.99999999998632 0.0
0.1 11.09999999998647 0.0
0.1 11.19999999998662 0.0
0.1 11.29999999998677 0.0
0.1 11.39999999998693 0.0
0.1 11.49999999998708 0.0
0.1 11.59999999998723 0.0
0.1 11.69999999998738 0.0
0.1 11.79999999998754 0.0
0.1 11.89999999998769 0.0
0.1 11.99999999998784 0.0
0.1 12.09999999998799 0.0
0.1 12.19999999998814 0.0
0.1 12.2999999999883 0.0
0.1 12.39999999998845 0.0
0.1 12.4999999999886 0.0
0.1 12.59999999998875 0.0
0.1 12.6999999999889 0.0
0.1 12.79999999998905 0.0
0.1 12.89999999998921 0.0
0.1 12.99999999998936 0.0
0.1 13.09999999998951 0.0
0.1 13.19999999998966 0.0
0.1 13.29999999998982 0.0
0.1 13.39999999998997 0.0
0.1 13.49999999999012 0.0
0.1 13.59999999999027 0.0
0.1 13.69999999999042 0.0
0.1 13.79999999999057 0.0
0.1 13.89999999999073 0.0
0.1 13.99999999999088 0.0
0.1 14.09999999999103 0.0
0.1 14.19999999999118 0.0
0.1 14.29999999999134 0.0
0.1 14.39999999999149 0.0
0.1 14.49999999999164 0.0
0.1 14.59999999999179 0.0
0.1 14.69999999999194 0.0
0.1 14.7999999999921 0.0
0.1 14.89999999999225 0.0
0.1 14.9999999999924 0.0
0.1 15.09999999999255 0.0
0.1 15.1999999999927 0.0
0.1 15.29999999999285 0.0
0.1 15.39999999999301 0.0
0.1 15.49999999999316 0.0
0.1 15.59999999999331 0.0
0.1 15.69999999999346 0.0
0.1 15.79999999999362 0.0
0.1 15.89999999999377 0.0
0.1 15.99999999999392 0.0
0.1 16.09999999999407 0.0
0.1 16.19999999999422 0.0
0.1 16.29999999999437 0.0
0.1 16.39999999999453 0.0
0.1 16.49999999999468 0.0
0.1 16.59999999999483 0.0
0.1 16.69999999999498 0.0
0.1 16.79999999999514 0.0
0.1 16.89999999999528 0.0
0.1 16.99999999999544 0.0
0.1 17.09999999999559 0.0
0.1 17.19999999999574 0.0
0.1 17.29999999999589 0.0
0.1 17.39999999999605 0.0
0.1 17.4999999999962 0.0
0.1 17.59999999999635 0.0
0.1 17.6999999999965 0.0
0.1 17.79999999999665 0.0
0.1 17.89999999999681 0.0
0.1 17.99999999999696 0.0
0.1 18.09999999999711 0.0
0.1 18.19999999999726 0.0
0.1 18.29999999999742 0.0
0.1 18.39999999999757 0.0
0.1 18.49999999999772 0.0
0.1 18.59999999999787 0.0
0.1 18.69999999999802 0.0
0.1 18.79999999999818 0.0
0.1 18.89999999999833 0.0
0.1 18.99999999999848 0.0
0.1 19.09999999999863 0.0
0.1 19.19999999999878 0.0
0.1 19.29999999999894 0.0
0.1 19.39999999999909 0.0
0.1 19.49999999999924 0.0
0.1 19.59999999999939 0.0
0.1 19.69999999999955 0.0
0.1 19.7999999999997 0.0
0.1 19.89999999999985 0.0
0.0 19.9 0.0
0.0 19.8 0.0
0.0 19.7 0.0
0.0 19.6 0.0
0.0 19.5 0.0
0.0 19.4 0.0
0.0 19.3 0.0
0.0 19.2 0.0
0.0 19.1 0.0
0.0 19.0 0.0
0.0 18.9 0.0
0.0 18.8 0.0
0.0 18.7 0.0
0.0 18.6 0.0
0.0 18.5 0.0
0.0 18.4 0.0
0.0 18.3 0.0
0.0 18.2 0.0
0.0 18.1 0.0
0.0 18.0 0.0
0.0 17.9 0.0
0.0 17.8 0.0
0.0 17.7 0.0
0.0 17.6 0.0
0.0 17.5 0.0
0.0 17.4 0.0
0.0 17.3 0.0
0.0 17.2 0.0
0.0 17.09999999999999 0.0
0.0 17.0 0.0
0.0 16.9 0.0
0.0 16.8 0.0
0.0 16.7 0.0
0.0 16.59999999999999 0.0
0.0 16.49999999999999 0.0
0.0 16.4 0.0
0.0 16.29999999999999 0.0
0.0 16.2 0.0
0.0 16.09999999999999 0.0
0.0 15.99999999999999 0.0
0.0 15.89999999999999 0.0
0.0 15.79999999999999 0.0
0.0 15.69999999999999 0.0
0.0 15.59999999999999 0.0
0.0 15.49999999999999 0.0
0.0 15.39999999999999 0.0
0.0 15.29999999999999 0.0
0.0 15.19999999999999 0.0
0.0 15.09999999999999 0.0
0.0 14.99999999999999 0.0
0.0 14.89999999999999 0.0
0.0 14.79999999999999 0.0
0.0 14.69999999999999 0.0
0.0 14.59999999999999 0.0
0.0 14.49999999999999 0.0
0.0 14.39999999999999 0.0
0.0 14.29999999999999 0.0
0.0 14.19999999999999 0.0
0.0 14.09999999999999 0.0
0.0 13.99999999999999 0.0
0.0 13.89999999999999 0.0
0.0 13.79999999999999 0.0
0.0 13.69999999999999 0.0
0.0 13.59999999999999 0.0
0.0 13.49999999999999 0.0
0.0 13.39999999999999 0.0
0.0 13.29999999999999 0.0
0.0 13.19999999999999 0.0
0.0 13.09999999999999 0.0
0.0 12.99999999999999 0.0
0.0 12.89999999999999 0.0
0.0 12.79999999999999 0.0
0.0 12.69999999999999 0.0
0.0 12.59999999999999 0.0
0.0 12.49999999999999 0.0
0.0 12.39999999999999 0.0
0.0 12.29999999999999 0.0
0.0 12.19999999999999 0.0
0.0 12.09999999999999 0.0
0.0 11.99999999999999 0.0
0.0 11.89999999999999 0.0
0.0 11.79999999999999 0.0
0.0 11.69999999999999 0.0
0.0 11.59999999999999 0.0
0.0 11.49999999999999 0.0
0.0 11.39999999999999 0.0
0.0 11.29999999999999 0.0
0.0 11.19999999999999 0.0
0.0 11.09999999999999 0.0
0.0 10.99999999999999 0.0
0.0 10.89999999999999 0.0
0.0 10.79999999999999 0.0
0.0 10.69999999999999 0.0
0.0 10.59999999999999 0.0
0.0 10.49999999999999 0.0
0.0 10.39999999999999 0.0
0.0 10.29999999999999 0.0
0.0 10.19999999999999 0.0
0.0 10.09999999999999 0.0
0.0 9.999999999999993 0.0
0.0 9.899999999999993 0.0
0.0 9.799999999999994 0.0
0.0 9.699999999999992 0.0
0.0 9.599999999999993 0.0
0.0 9.499999999999993 0.0
0.0 9.399999999999993 0.0
0.0 9.299999999999995 0.0
0.0 9.199999999999996 0.0
0.0 9.099999999999994 0.0
0.0 8.999999999999995 0.0
0.0 8.899999999999995 0.0
0.0 8.799999999999994 0.0
0.0 8.699999999999994 0.0
0.0 8.599999999999994 0.0
0.0 8.499999999999995 0.0
0.0 8.399999999999995 0.0
0.0 8.299999999999994 0.0
0.0 8.199999999999994 0.0
0.0 8.099999999999994 0.0
0.0 7.999999999999993 0.0
0.0 7.899999999999995 0.0
0.0 7.799999999999995 0.0
0.0 7.699999999999996 0.0
0.0 7.599999999999996 0.0
0.0 7.499999999999996 0.0
0.0 7.399999999999995 0.0
0.0 7.299999999999995 0.0
0.0 7.199999999999996 0.0
0.0 7.099999999999994 0.0
0.0 6.999999999999995 0.0
0.0 6.899999999999995 0.0
0.0 6.799999999999995 0.0
0.0 6.699999999999996 0.0
0.0 6.599999999999994 0.0
0.0 6.499999999999995 0.0
0.0 6.399999999999997 0.0
0.0 6.299999999999997 0.0
0.0 6.199999999999996 0.0
0.0 6.099999999999996 0.0
0.0 5.999999999999996 0.0
0.0 5.899999999999997 0.0
0.0 5.799999999999997 0.0
0.0 5.699999999999996 0.0
0.0 5.599999999999996 0.0
0.0 5.499999999999996 0.0
0.0 5.399999999999995 0.0
0.0 5.299999999999995 0.0
0.0 5.199999999999996 0.0
0.0 5.099999999999996 0.0
0.0 4.999999999999998 0.0
0.0 4.899999999999999 0.0
0.0 4.799999999999997 0.0
0.0 4.699999999999998 0.0
0.0 4.599999999999998 0.0
0.0 4.499999999999996 0.0
0.0 4.399999999999997 0.0
0.0 4.299999999999997 0.0
0.0 4.199999999999998 0.0
0.0 4.099999999999998 0.0
0.0 3.999999999999996 0.0
0.0 3.899999999999999 0.0
0.0 3.799999999999997 0.0
0.0 3.699999999999996 0.0
0.0 3.599999999999998 0.0
0.0 3.5 0.0
0.0 3.399999999999999 0.0
0.0 3.299999999999997 0.0
0.0 3.199999999999999 0.0
0.0 3.099999999999998 0.0
0.0 3.0 0.0
0.0 2.899999999999999 0.0
0.0 2.799999999999997 0.0
0.0 2.699999999999999 0.0
0.0 2.599999999999998 0.0
0.0 2.499999999999996 0.0
0.0 2.399999999999999 0.0
0.0 2.299999999999997 0.0
0.0 2.199999999999999 0.0
0.0 2.100000000000001 0.0
0.0 2.0 0.0
0.0 1.899999999999999 0.0
0.0 1.800000000000001 0.0
0.0 1.699999999999999 0.0
0.0 1.599999999999998 0.0
0.0 1.5 0.0
0.0 1.399999999999999 0.0
0.0 1.299999999999997 0.0
0.0 1.199999999999999 0.0
0.0 1.099999999999998 0.0
0.0 1.0 0.0
0.0 0.8999999999999986 0.0
0.0 0.8000000000000007 0.0
0.0 0.6999999999999993 0.0
0.0 0.6000000000000014 0.0
0.0 0.5 0.0
0.0 0.3999999999999986 0.0
0.0 0.3000000000000007 0.0
0.0 0.1999999999999993 0.0
[...]
POINT_DATA 804
VECTORS displacement double
0.0 0.0 0.0
0.0 0.0 0.0
0.0 -0.0017877102206936394 0.0
0.0 -0.001787710220693627 0.0
0.0 0.0 0.0
0.0 0.0 0.0
0.0 -0.001787710220693635 0.0
0.0 -0.0017877102206936286 0.0
0.0 3.008190309602094e-35 0.0
0.0 6.611365436754954e-34 0.0
0.0 -2.66501005820164e-33 0.0
0.0 -2.4463175249707394e-32 0.0
0.0 1.5366127193298843e-31 0.0
0.0 8.522614384082245e-31 0.0
0.0 -7.447439379182792e-30 0.0
0.0 -2.9516471985266234e-29 0.0
0.0 3.2634719380764576e-28 0.0
0.0 1.0876005028361276e-27 0.0
0.0 -1.329244785185871e-26 0.0
0.0 -4.4839698861773717e-26 0.0
0.0 5.043978441745855e-25 0.0
0.0 2.0414385775010093e-24 0.0
0.0 -1.7405634697839057e-23 0.0
0.0 -9.589997575262968e-23 0.0
0.0 5.087302493451085e-22 0.0
0.0 4.3045986880913896e-21 0.0
0.0 -9.929641912919284e-21 0.0
0.0 -1.719383066130456e-19 0.0
0.0 -7.722686769768207e-20 0.0
0.0 5.579396337789973e-18 0.0
0.0 1.914319341649365e-17 0.0
0.0 -1.1817594067327883e-16 0.0
0.0 -1.0229803872492908e-15 0.0
0.0 -2.403377994432957e-16 0.0
0.0 2.996362884979024e-14 0.0
0.0 1.3846520240748933e-13 0.0
0.0 -2.1571831874099487e-13 0.0
0.0 -4.9572944472857356e-12 0.0
0.0 -2.0219820950242937e-11 0.0
0.0 1.8928031418356234e-11 0.0
0.0 6.314954927235058e-10 0.0
0.0 3.4295064342702894e-09 0.0
0.0 7.0305405956736065e-09 0.0
0.0 -3.194389440115689e-08 0.0
0.0 -3.848297565730438e-07 0.0
0.0 -2.175638275842493e-06 0.0
0.0 -8.961427547992462e-06 0.0
0.0 -2.9709181017035372e-05 0.0
0.0 -8.251142940465091e-05 0.0
0.0 -0.00019578071378758527 0.0
0.0 -0.00040096309784342065 0.0
0.0 -0.0007125185482541111 0.0
0.0 -0.001101658005729992 0.0
0.0 -0.0014861154349630177 0.0
0.0 -0.0017607420572752941 0.0
0.0 -0.0018643683176820568 0.0
0.0 -0.001831287318603764 0.0
0.0 -0.0017668321822194358 0.0
0.0 -0.0017544647193942745 0.0
0.0 -0.0017881029931138895 0.0
0.0 -0.0018081740959748414 0.0
0.0 -0.0017919556611556767 0.0
0.0 -0.0017748890227742857 0.0
0.0 -0.001783674429333787 0.0
0.0 -0.0017965203021221405 0.0
0.0 -0.0017903332538643823 0.0
0.0 -0.001781112225470632 0.0
0.0 -0.00178672648000036 0.0
0.0 -0.001792858135263528 0.0
0.0 -0.001787206936015848 0.0
0.0 -0.00178391622946192 0.0
0.0 -0.0017894187191026115 0.0
0.0 -0.001790047150632225 0.0
0.0 -0.0017853606714242317 0.0
0.0 -0.0017869721459346712 0.0
0.0 -0.0017900079308042762 0.0
0.0 -0.0017870530334766468 0.0
0.0 -0.0017862354447880089 0.0
0.0 -0.0017892033156151124 0.0
0.0 -0.0017879597065772728 0.0
0.0 -0.0017863072361082265 0.0
0.0 -0.0017885527157019633 0.0
0.0 -0.0017882698004907072 0.0
0.0 -0.0017865684326084312 0.0
0.0 -0.0017882018738207821 0.0
0.0 -0.0017882879620266874 0.0
0.0 -0.0017867955685366094 0.0
0.0 -0.0017880714082096623 0.0
0.0 -0.001788185442659963 0.0
0.0 -0.001786957334526935 0.0
0.0 -0.0017880676234350737 0.0
0.0 -0.0017880287107358112 0.0
0.0 -0.0017870863570771027 0.0
0.0 -0.0017881195839357694 0.0
0.0 -0.0017878391791893726 0.0
0.0 -0.0017872272731075764 0.0
0.0 -0.0017881683465408465 0.0
0.0 -0.0017876352917323023 0.0
0.0 -0.0017874133645013127 0.0
0.0 -0.0017881578998518496 0.0
0.0 -0.0017874566737241648 0.0
0.0 -0.001787645881499094 0.0
0.0 -0.0017880451723378409 0.0
0.0 -0.0017873670757534532 0.0
0.0 -0.0017878757156248334 0.0
0.0 -0.0017878308545773924 0.0
0.0 -0.0017874256112351782 0.0
0.0 -0.0017880086800828765 0.0
0.0 -0.0017875905566698917 0.0
0.0 -0.0017876282815120538 0.0
0.0 -0.0017879603177753803 0.0
0.0 -0.0017874604589129333 0.0
0.0 -0.0017878620918739885 0.0
0.0 -0.0017877490179535362 0.0
0.0 -0.001787541131457582 0.0
0.0 -0.0017879490129711537 0.0
0.0 -0.0017875411807816359 0.0
0.0 -0.0017877685756704062 0.0
0.0 -0.0017878066829701547 0.0
0.0 -0.0017875376033912947 0.0
0.0 -0.0017879121399738444 0.0
0.0 -0.0017875876948148179 0.0
0.0 -0.001787740404147212 0.0
0.0 -0.0017878053198639773 0.0
0.0 -0.0017875605563442815 0.0
0.0 -0.0017878870382285696 0.0
0.0 -0.0017875962655811873 0.0
0.0 -0.0017877564255853256 0.0
0.0 -0.0017877708208677305 0.0
0.0 -0.001787596991375816 0.0
0.0 -0.0017878675557146623 0.0
0.0 -0.0017875862883794096 0.0
0.0 -0.0017877966250225226 0.0
0.0 -0.0017877119092263808 0.0
0.0 -0.0017876551951135193 0.0
0.0 -0.001787830502003188 0.0
0.0 -0.0017875878209825515 0.0
0.0 -0.001787834318495783 0.0
0.0 -0.0017876431139122468 0.0
0.0 -0.001787737755259931 0.0
0.0 -0.0017877557576512694 0.0
0.0 -0.0017876349206616972 0.0
0.0 -0.0017878279378260853 0.0
0.0 -0.0017876055597054656 0.0
0.0 -0.0017878122617695366 0.0
0.0 -0.0017876595555172108 0.0
0.0 -0.001787733062684841 0.0
0.0 -0.0017877478103791816 0.0
0.0 -0.0017876516359904195 0.0
0.0 -0.001787809517766161 0.0
0.0 -0.001787617856996948 0.0
0.0 -0.0017878125033231344 0.0
0.0 -0.0017876435522907914 0.0
0.0 -0.001787764184716967 0.0
0.0 -0.0017877059851073606 0.0
0.0 -0.0017876970589234852 0.0
0.0 -0.0017877689075399693 0.0
0.0 -0.0017876456510930732 0.0
0.0 -0.0017878037748918574 0.0
0.0 -0.0017876298291941714 0.0
0.0 -0.0017878004885363771 0.0
0.0 -0.0017876502427468363 0.0
0.0 -0.001787766452554225 0.0
0.0 -0.0017876935048670817 0.0
0.0 -0.0017877186827013607 0.0
0.0 -0.0017877412734720443 0.0
0.0 -0.0017876748449215522 0.0
0.0 -0.0017877781072154048 0.0
0.0 -0.0017876471265513285 0.0
0.0 -0.0017877955914763204 0.0
0.0 -0.0017876401000293063 0.0
0.0 -0.0017877927098477937 0.0
0.0 -0.0017876517605635038 0.0
0.0 -0.0017877738100218299 0.0
0.0 -0.0017876761463912838 0.0
0.0 -0.001787745762932034 0.0
0.0 -0.0017877061048284467 0.0
0.0 -0.001787715486168766 0.0
0.0 -0.0017877353445814553 0.0
0.0 -0.0017876883797299933 0.0
0.0 -0.0017877595057600793 0.0
0.0 -0.001787667713968235 0.0
0.0 -0.00178777637786716 0.0
0.0 -0.0017876547272490373 0.0
0.0 -0.0017877855688212265 0.0
0.0 -0.0017876491118544201 0.0
0.0 -0.001787787933381746 0.0
0.0 -0.0017876496139991932 0.0
0.0 -0.001787784988869559 0.0
0.0 -0.001787654570898724 0.0
0.0 -0.001787778445348022 0.0
0.0 -0.0017876623029502365 0.0
0.0 -0.0017877698938186333 0.0
0.0 -0.001787671348092375 0.0
0.0 -0.0017877606425083922 0.0
0.0 -0.0017876805639897152 0.0
0.0 -0.0017877516660167487 0.0
0.0 -0.0017876891378861076 0.0
0.0 -0.0017877436266630186 0.0
0.0 -0.0017876965428942119 0.0
0.0 -0.0017877369329164928 0.0
0.0 -0.0017877024712113765 0.0
0.0 -0.0017877318094216567 0.0
0.0 -0.0017877067648123905 0.0
0.0 -0.0017877283626390648 0.0
0.0 -0.0017877093555763344 0.0
0.0 -0.001787726633529146 0.0
0.0 -0.0017877266335291422 0.0
0.0 -0.001787709355576344 0.0
0.0 -0.0017877283626390687 0.0
0.0 -0.0017877067648123933 0.0
0.0 -0.0017877318094216585 0.0
0.0 -0.0017877024712113865 0.0
0.0 -0.0017877369329164872 0.0
0.0 -0.0017876965428942242 0.0
0.0 -0.0017877436266630256 0.0
0.0 -0.0017876891378861123 0.0
0.0 -0.0017877516660167623 0.0
0.0 -0.0017876805639897159 0.0
0.0 -0.001787760642508389 0.0
0.0 -0.001787671348092372 0.0
0.0 -0.0017877698938186246 0.0
0.0 -0.0017876623029502291 0.0
0.0 -0.0017877784453480105 0.0
0.0 -0.0017876545708987509 0.0
0.0 -0.0017877849888695522 0.0
0.0 -0.0017876496139992018 0.0
0.0 -0.0017877879333817522 0.0
0.0 -0.0017876491118544295 0.0
0.0 -0.0017877855688212328 0.0
0.0 -0.001787654727249035 0.0
0.0 -0.0017877763778671673 0.0
0.0 -0.0017876677139682308 0.0
0.0 -0.001787759505760084 0.0
0.0 -0.001787688379730002 0.0
0.0 -0.0017877353445814523 0.0
0.0 -0.001787715486168775 0.0
0.0 -0.0017877061048284543 0.0
0.0 -0.0017877457629320566 0.0
0.0 -0.0017876761463912754 0.0
0.0 -0.0017877738100218392 0.0
0.0 -0.0017876517605634943 0.0
0.0 -0.001787792709847786 0.0
0.0 -0.0017876401000293124 0.0
0.0 -0.0017877955914763172 0.0
0.0 -0.0017876471265513545 0.0
0.0 -0.0017877781072154137 0.0
0.0 -0.0017876748449215732 0.0
0.0 -0.0017877412734720302 0.0
0.0 -0.0017877186827013694 0.0
0.0 -0.0017876935048670728 0.0
0.0 -0.001787766452554208 0.0
0.0 -0.0017876502427468378 0.0
0.0 -0.0017878004885363754 0.0
0.0 -0.001787629829194174 0.0
0.0 -0.0017878037748918609 0.0
0.0 -0.0017876456510930942 0.0
0.0 -0.001787768907539965 0.0
0.0 -0.0017876970589234956 0.0
0.0 -0.0017877059851073398 0.0
0.0 -0.0017877641847169543 0.0
0.0 -0.0017876435522907893 0.0
0.0 -0.0017878125033231327 0.0
0.0 -0.0017876178569969428 0.0
0.0 -0.0017878095177661648 0.0
0.0 -0.0017876516359904315 0.0
0.0 -0.0017877478103791719 0.0
0.0 -0.0017877330626848503 0.0
0.0 -0.0017876595555172056 0.0
0.0 -0.001787812261769541 0.0
0.0 -0.0017876055597054689 0.0
0.0 -0.0017878279378260693 0.0
0.0 -0.001787634920661718 0.0
0.0 -0.0017877557576512517 0.0
0.0 -0.0017877377552599264 0.0
0.0 -0.0017876431139122358 0.0
0.0 -0.0017878343184957823 0.0
0.0 -0.0017875878209825408 0.0
0.0 -0.0017878305020031678 0.0
0.0 -0.0017876551951135427 0.0
0.0 -0.0017877119092263624 0.0
0.0 -0.0017877966250225334 0.0
0.0 -0.0017875862883793901 0.0
0.0 -0.001787867555714662 0.0
0.0 -0.0017875969913758315 0.0
0.0 -0.0017877708208677162 0.0
0.0 -0.0017877564255853648 0.0
0.0 -0.0017875962655811753 0.0
0.0 -0.0017878870382285871 0.0
0.0 -0.001787560556344293 0.0
0.0 -0.0017878053198639378 0.0
0.0 -0.0017877404041472295 0.0
0.0 -0.0017875876948147875 0.0
0.0 -0.0017879121399738543 0.0
0.0 -0.0017875376033913164 0.0
0.0 -0.0017878066829701135 0.0
0.0 -0.0017877685756704643 0.0
0.0 -0.0017875411807816008 0.0
0.0 -0.0017879490129711502 0.0
0.0 -0.0017875411314576242 0.0
0.0 -0.0017877490179534791 0.0
0.0 -0.0017878620918740607 0.0
0.0 -0.0017874604589129131 0.0
0.0 -0.001787960317775337 0.0
0.0 -0.0017876282815121076 0.0
0.0 -0.0017875905566698304 0.0
0.0 -0.0017880086800828839 0.0
0.0 -0.001787425611235217 0.0
0.0 -0.0017878308545772974 0.0
0.0 -0.0017878757156249271 0.0
0.0 -0.0017873670757534328 0.0
0.0 -0.0017880451723378099 0.0
0.0 -0.0017876458814991862 0.0
0.0 -0.001787456673724068 0.0
0.0 -0.0017881578998518422 0.0
0.0 -0.0017874133645014092 0.0
0.0 -0.0017876352917321665 0.0
0.0 -0.0017881683465409148 0.0
0.0 -0.0017872272731076378 0.0
0.0 -0.001787839179189198 0.0
0.0 -0.001788119583935912 0.0
0.0 -0.0017870863570771216 0.0
0.0 -0.0017880287107356284 0.0
0.0 -0.001788067623435257 0.0
0.0 -0.0017869573345269246 0.0
0.0 -0.0017881854426597505 0.0
0.0 -0.0017880714082099203 0.0
0.0 -0.0017867955685365634 0.0
0.0 -0.001788287962026444 0.0
0.0 -0.0017882018738210543 0.0
0.0 -0.001786568432608446 0.0
0.0 -0.0017882698004903794 0.0
0.0 -0.00178855271570223 0.0
0.0 -0.0017863072361083375 0.0
0.0 -0.0017879597065768506 0.0
0.0 -0.0017892033156153317 0.0
0.0 -0.0017862354447883322 0.0
0.0 -0.001787053033476159 0.0
0.0 -0.0017900079308042502 0.0
0.0 -0.0017869721459352632 0.0
0.0 -0.0017853606714238956 0.0
0.0 -0.0017900471506317307 0.0
0.0 -0.001789418719103282 0.0
0.0 -0.0017839162294622107 0.0
0.0 -0.001787206936014936 0.0
0.0 -0.0017928581352635088 0.0
0.0 -0.0017867264800014984 0.0
0.0 -0.001781112225470396 0.0
0.0 -0.0017903332538629876 0.0
0.0 -0.0017965203021225882 0.0
0.0 -0.001783674429335583 0.0
0.0 -0.0017748890227738134 0.0
0.0 -0.0017919556611531995 0.0
0.0 -0.001808174095974833 0.0
0.0 -0.0017881029931174097 0.0
0.0 -0.001754464719396019 0.0
0.0 -0.0017668321822152172 0.0
0.0 -0.0018312873185977472 0.0
0.0 -0.0018643683176840014 0.0
0.0 -0.0017607420572914789 0.0
0.0 -0.001486115434991047 0.0
0.0 -0.0011016580057615357 0.0
0.0 -0.0007125185482811276 0.0
0.0 -0.00040096309786208335 0.0
0.0 -0.00019578071379826808 0.0
0.0 -8.251142940977946e-05 0.0
0.0 -2.970918101910315e-05 0.0
0.0 -8.961427548687661e-06 0.0
0.0 -2.1756382760324087e-06 0.0
0.0 -3.8482975661285555e-07 0.0
0.0 -3.19438944065198e-08 0.0
0.0 7.030540595667112e-09 0.0
0.0 3.429506434484964e-09 0.0
0.0 6.314954927803133e-10 0.0
0.0 1.8928031424136552e-11 0.0
0.0 -2.0219820950973495e-11 0.0
0.0 -4.95729444762548e-12 0.0
0.0 -2.1571831877909357e-13 0.0
0.0 1.3846520241165123e-13 0.0
0.0 2.996362885151839e-14 0.0
0.0 -2.4033779932654035e-16 0.0
0.0 -1.0229803872822632e-15 0.0
0.0 -1.1817594068057367e-16 0.0
0.0 1.9143193416612072e-17 0.0
0.0 5.5793963380183346e-18 0.0
0.0 -7.722686768030792e-20 0.0
0.0 -1.7193830661817004e-19 0.0
0.0 -9.92964191374719e-21 0.0
0.0 4.3045986881795415e-21 0.0
0.0 5.087302493712914e-22 0.0
0.0 -9.589997575376482e-23 0.0
0.0 -1.7405634698534268e-23 0.0
0.0 2.041438577509447e-24 0.0
0.0 5.043978441913533e-25 0.0
0.0 -4.4839698861733705e-26 0.0
0.0 -1.329244785224115e-26 0.0
0.0 1.0876005028362372e-27 0.0
0.0 3.263471938153791e-28 0.0
0.0 -2.951647198543647e-29 0.0
0.0 -7.44743937930873e-30 0.0
0.0 8.522614384146038e-31 0.0
0.0 1.5366127193466233e-31 0.0
0.0 -2.4463175249847907e-32 0.0
0.0 -2.6650100582193743e-33 0.0
0.0 6.611365436781615e-34 0.0
0.0 3.0081903095954235e-35 0.0
0.0 3.0081903096018526e-35 0.0
0.0 6.611365436755087e-34 0.0
0.0 -2.665010058201715e-33 0.0
0.0 -2.446317524970693e-32 0.0
0.0 1.536612719329859e-31 0.0
0.0 8.522614384082368e-31 0.0
0.0 -7.447439379182852e-30 0.0
0.0 -2.951647198526601e-29 0.0
0.0 3.26347193807643e-28 0.0
0.0 1.0876005028361407e-27 0.0
0.0 -1.329244785185884e-26 0.0
0.0 -4.483969886177263e-26 0.0
0.0 5.043978441745799e-25 0.0
0.0 2.041438577501037e-24 0.0
0.0 -1.7405634697839013e-23 0.0
0.0 -9.589997575262981e-23 0.0
0.0 5.087302493451081e-22 0.0
0.0 4.304598688091386e-21 0.0
0.0 -9.929641912919103e-21 0.0
0.0 -1.7193830661304487e-19 0.0
0.0 -7.722686769768543e-20 0.0
0.0 5.5793963377899755e-18 0.0
0.0 1.914319341649329e-17 0.0
0.0 -1.1817594067327574e-16 0.0
0.0 -1.022980387249297e-15 0.0
0.0 -2.4033779944325927e-16 0.0
0.0 2.9963628849790145e-14 0.0
0.0 1.3846520240748968e-13 0.0
0.0 -2.1571831874099752e-13 0.0
0.0 -4.957294447285713e-12 0.0
0.0 -2.0219820950242995e-11 0.0
0.0 1.892803141835633e-11 0.0
0.0 6.314954927235057e-10 0.0
0.0 3.4295064342702394e-09 0.0
0.0 7.0305405956737935e-09 0.0
0.0 -3.19438944011566e-08 0.0
0.0 -3.848297565730426e-07 0.0
0.0 -2.1756382758425145e-06 0.0
0.0 -8.961427547992445e-06 0.0
0.0 -2.970918101703544e-05 0.0
0.0 -8.251142940465121e-05 0.0
0.0 -0.00019578071378758467 0.0
0.0 -0.00040096309784342163 0.0
0.0 -0.0007125185482541076 0.0
0.0 -0.0011016580057299913 0.0
0.0 -0.0014861154349630132 0.0
0.0 -0.001760742057275293 0.0
0.0 -0.0018643683176820523 0.0
0.0 -0.0018312873186037662 0.0
0.0 -0.0017668321822194369 0.0
0.0 -0.0017544647193942725 0.0
0.0 -0.001788102993113897 0.0
0.0 -0.001808174095974838 0.0
0.0 -0.0017919556611556795 0.0
0.0 -0.001774889022774268 0.0
0.0 -0.0017836744293337943 0.0
0.0 -0.0017965203021221457 0.0
0.0 -0.0017903332538643745 0.0
0.0 -0.0017811122254706357 0.0
0.0 -0.0017867264800003552 0.0
0.0 -0.0017928581352635304 0.0
0.0 -0.0017872069360158544 0.0
0.0 -0.0017839162294619206 0.0
0.0 -0.0017894187191026228 0.0
0.0 -0.0017900471506322449 0.0
0.0 -0.0017853606714242321 0.0
0.0 -0.0017869721459346781 0.0
0.0 -0.0017900079308042782 0.0
0.0 -0.001787053033476645 0.0
0.0 -0.0017862354447880145 0.0
0.0 -0.0017892033156151081 0.0
0.0 -0.0017879597065772728 0.0
0.0 -0.0017863072361082356 0.0
0.0 -0.0017885527157019629 0.0
0.0 -0.001788269800490701 0.0
0.0 -0.001786568432608444 0.0
0.0 -0.001788201873820779 0.0
0.0 -0.0017882879620266952 0.0
0.0 -0.00178679556853659 0.0
0.0 -0.0017880714082096772 0.0
0.0 -0.001788185442659958 0.0
0.0 -0.0017869573345269357 0.0
0.0 -0.0017880676234350605 0.0
0.0 -0.0017880287107358095 0.0
0.0 -0.0017870863570770999 0.0
0.0 -0.0017881195839357816 0.0
0.0 -0.0017878391791893735 0.0
0.0 -0.0017872272731075725 0.0
0.0 -0.0017881683465408502 0.0
0.0 -0.0017876352917323018 0.0
0.0 -0.001787413364501306 0.0
0.0 -0.0017881578998518396 0.0
0.0 -0.001787456673724169 0.0
0.0 -0.0017876458814990814 0.0
0.0 -0.0017880451723378602 0.0
0.0 -0.001787367075753454 0.0
0.0 -0.0017878757156248436 0.0
0.0 -0.001787830854577385 0.0
0.0 -0.001787425611235182 0.0
0.0 -0.0017880086800828694 0.0
0.0 -0.0017875905566698957 0.0
0.0 -0.001787628281512046 0.0
0.0 -0.0017879603177753662 0.0
0.0 -0.0017874604589129363 0.0
0.0 -0.0017878620918740059 0.0
0.0 -0.001787749017953541 0.0
0.0 -0.001787541131457586 0.0
0.0 -0.0017879490129711455 0.0
0.0 -0.0017875411807816279 0.0
0.0 -0.001787768575670414 0.0
0.0 -0.0017878066829701456 0.0
0.0 -0.0017875376033912958 0.0
0.0 -0.0017879121399738437 0.0
0.0 -0.0017875876948148207 0.0
0.0 -0.0017877404041472032 0.0
0.0 -0.0017878053198639705 0.0
0.0 -0.0017875605563442815 0.0
0.0 -0.0017878870382285787 0.0
0.0 -0.0017875962655811912 0.0
0.0 -0.0017877564255853319 0.0
0.0 -0.0017877708208677357 0.0
0.0 -0.0017875969913758196 0.0
0.0 -0.0017878675557146725 0.0
0.0 -0.0017875862883794114 0.0
0.0 -0.0017877966250225252 0.0
0.0 -0.0017877119092263838 0.0
0.0 -0.0017876551951135234 0.0
0.0 -0.0017878305020031788 0.0
0.0 -0.0017875878209825458 0.0
0.0 -0.001787834318495775 0.0
0.0 -0.0017876431139122533 0.0
0.0 -0.0017877377552599234 0.0
0.0 -0.001787755757651261 0.0
0.0 -0.0017876349206617055 0.0
0.0 -0.001787827937826087 0.0
0.0 -0.0017876055597054825 0.0
0.0 -0.0017878122617695457 0.0
0.0 -0.001787659555517207 0.0
0.0 -0.0017877330626848455 0.0
0.0 -0.001787747810379186 0.0
0.0 -0.0017876516359904243 0.0
0.0 -0.0017878095177661772 0.0
0.0 -0.0017876178569969435 0.0
0.0 -0.0017878125033231305 0.0
0.0 -0.0017876435522907943 0.0
0.0 -0.0017877641847169569 0.0
0.0 -0.0017877059851073547 0.0
0.0 -0.0017876970589234891 0.0
0.0 -0.0017877689075399808 0.0
0.0 -0.0017876456510930768 0.0
0.0 -0.0017878037748918587 0.0
0.0 -0.0017876298291941686 0.0
0.0 -0.0017878004885363765 0.0
0.0 -0.0017876502427468385 0.0
0.0 -0.001787766452554212 0.0
0.0 -0.0017876935048670903 0.0
0.0 -0.0017877186827013748 0.0
0.0 -0.0017877412734720363 0.0
0.0 -0.0017876748449215535 0.0
0.0 -0.0017877781072154 0.0
0.0 -0.001787647126551341 0.0
0.0 -0.001787795591476317 0.0
0.0 -0.0017876401000293193 0.0
0.0 -0.0017877927098477837 0.0
0.0 -0.0017876517605634938 0.0
0.0 -0.0017877738100218472 0.0
0.0 -0.001787676146391272 0.0
0.0 -0.0017877457629320648 0.0
0.0 -0.0017877061048284695 0.0
0.0 -0.0017877154861687691 0.0
0.0 -0.0017877353445814534 0.0
0.0 -0.0017876883797299948 0.0
0.0 -0.001787759505760089 0.0
0.0 -0.0017876677139682343 0.0
0.0 -0.0017877763778671747 0.0
0.0 -0.0017876547272490315 0.0
0.0 -0.001787785568821237 0.0
0.0 -0.001787649111854433 0.0
0.0 -0.001787787933381743 0.0
0.0 -0.0017876496139991908 0.0
0.0 -0.0017877849888695558 0.0
0.0 -0.001787654570898759 0.0
0.0 -0.001787778445348033 0.0
0.0 -0.0017876623029502417 0.0
0.0 -0.001787769893818639 0.0
0.0 -0.0017876713480923729 0.0
0.0 -0.0017877606425083948 0.0
0.0 -0.0017876805639897193 0.0
0.0 -0.0017877516660167567 0.0
0.0 -0.0017876891378861136 0.0
0.0 -0.001787743626663028 0.0
0.0 -0.0017876965428942175 0.0
0.0 -0.0017877369329164852 0.0
0.0 -0.0017877024712113867 0.0
0.0 -0.0017877318094216535 0.0
0.0 -0.0017877067648123968 0.0
0.0 -0.0017877283626390585 0.0
0.0 -0.001787709355576349 0.0
0.0 -0.001787726633529148 0.0
0.0 -0.0017877266335291457 0.0
0.0 -0.001787709355576342 0.0
0.0 -0.0017877283626390721 0.0
0.0 -0.0017877067648123996 0.0
0.0 -0.0017877318094216559 0.0
0.0 -0.0017877024712113815 0.0
0.0 -0.001787736932916483 0.0
0.0 -0.0017876965428942203 0.0
0.0 -0.0017877436266630264 0.0
0.0 -0.0017876891378861104 0.0
0.0 -0.0017877516660167478 0.0
0.0 -0.0017876805639897228 0.0
0.0 -0.0017877606425083933 0.0
0.0 -0.0017876713480923635 0.0
0.0 -0.0017877698938186218 0.0
0.0 -0.0017876623029502436 0.0
0.0 -0.0017877784453480198 0.0
0.0 -0.001787654570898738 0.0
0.0 -0.0017877849888695537 0.0
0.0 -0.001787649613999189 0.0
0.0 -0.0017877879333817511 0.0
0.0 -0.0017876491118544273 0.0
0.0 -0.0017877855688212209 0.0
0.0 -0.0017876547272490315 0.0
0.0 -0.0017877763778671543 0.0
0.0 -0.0017876677139682315 0.0
0.0 -0.0017877595057600756 0.0
0.0 -0.0017876883797300009 0.0
0.0 -0.0017877353445814536 0.0
0.0 -0.0017877154861687767 0.0
0.0 -0.0017877061048284513 0.0
0.0 -0.001787745762932045 0.0
0.0 -0.0017876761463912856 0.0
0.0 -0.0017877738100218405 0.0
0.0 -0.0017876517605634986 0.0
0.0 -0.0017877927098478067 0.0
0.0 -0.0017876401000292976 0.0
0.0 -0.0017877955914763106 0.0
0.0 -0.0017876471265513407 0.0
0.0 -0.001787778107215405 0.0
0.0 -0.0017876748449215517 0.0
0.0 -0.00178774127347204 0.0
0.0 -0.0017877186827013666 0.0
0.0 -0.0017876935048670795 0.0
0.0 -0.0017877664525542398 0.0