# vtk DataFile Version 2.0
data_152
ASCII
DATASET UNSTRUCTURED_GRID
POINTS 804 float
0.0 0.0 0.0
0.1 0.0 0.0
0.1 20.0 0.0
0.0 20.0 0.0
0.0 0.0 -0.1
0.1 0.0 -0.1
0.1 20.0 -0.1
0.0 20.0 -0.1
0.1 0.09999999999992462 0.0
0.1 0.1999999999998517 0.0
0.1 0.2999999999997818 0.0
0.1 0.399999999999712 0.0
0.1 0.4999999999996377 0.0
0.1 0.5999999999995541 0.0
0.1 0.6999999999994495 0.0
0.1 0.7999999999993355 0.0
0.1 0.8999999999992101 0.0
0.1 0.999999999999102 0.0
0.1 1.099999999999006 0.0
0.1 1.199999999998936 0.0
0.1 1.299999999998867 0.0
0.1 1.399999999998797 0.0
0.1 1.499999999998727 0.0
0.1 1.599999999998657 0.0
0.1 1.699999999998587 0.0
0.1 1.799999999998517 0.0
0.1 1.899999999998447 0.0
0.1 1.999999999998378 0.0
0.1 2.099999999998308 0.0
0.1 2.199999999998238 0.0
0.1 2.299999999998168 0.0
0.1 2.399999999998067 0.0
0.1 2.499999999997942 0.0
0.1 2.599999999997706 0.0
0.1 2.699999999997444 0.0
0.1 2.799999999997153 0.0
0.1 2.899999999996861 0.0
0.1 2.999999999996569 0.0
0.1 3.099999999996277 0.0
0.1 3.199999999995984 0.0
0.1 3.299999999995693 0.0
0.1 3.399999999995401 0.0
0.1 3.499999999995108 0.0
0.1 3.599999999994816 0.0
0.1 3.699999999994525 0.0
0.1 3.799999999994232 0.0
0.1 3.89999999999394 0.0
0.1 3.999999999993648 0.0
0.1 4.099999999993356 0.0
0.1 4.199999999993064 0.0
0.1 4.299999999992772 0.0
0.1 4.399999999992479 0.0
0.1 4.499999999992188 0.0
0.1 4.599999999991895 0.0
0.1 4.699999999991603 0.0
0.1 4.799999999991311 0.0
0.1 4.899999999991019 0.0
0.1 4.999999999990727 0.0
0.1 5.099999999990436 0.0
0.1 5.199999999990144 0.0
0.1 5.299999999989851 0.0
0.1 5.399999999989559 0.0
0.1 5.499999999989267 0.0
0.1 5.599999999988975 0.0
0.1 5.699999999988683 0.0
0.1 5.799999999988391 0.0
0.1 5.899999999988099 0.0
0.1 5.999999999987806 0.0
0.1 6.099999999987515 0.0
0.1 6.199999999987222 0.0
0.1 6.299999999986929 0.0
0.1 6.399999999986638 0.0
0.1 6.499999999986345 0.0
0.1 6.599999999986054 0.0
0.1 6.699999999985762 0.0
0.1 6.79999999998547 0.0
0.1 6.899999999985177 0.0
0.1 6.999999999984885 0.0
0.1 7.099999999984593 0.0
0.1 7.199999999984302 0.0
0.1 7.299999999984009 0.0
0.1 7.399999999983717 0.0
0.1 7.499999999983426 0.0
0.1 7.599999999983132 0.0
0.1 7.699999999982841 0.0
0.1 7.799999999982549 0.0
0.1 7.899999999982256 0.0
0.1 7.999999999982034 0.0
0.1 8.099999999981964 0.0
0.1 8.199999999982062 0.0
0.1 8.299999999982214 0.0
0.1 8.399999999982366 0.0
0.1 8.499999999982517 0.0
0.1 8.59999999998267 0.0
0.1 8.699999999982822 0.0
0.1 8.799999999982973 0.0
0.1 8.899999999983125 0.0
0.1 8.999999999983277 0.0
0.1 9.09999999998343 0.0
0.1 9.19999999998358 0.0
0.1 9.299999999983733 0.0
0.1 9.399999999983885 0.0
0.1 9.499999999984038 0.0
0.1 9.599999999984188 0.0
0.1 9.69999999998434 0.0
0.1 9.799999999984493 0.0
0.1 9.899999999984646 0.0
0.1 9.999999999984798 0.0
0.1 10.09999999998495 0.0
0.1 10.1999999999851 0.0
0.1 10.29999999998525 0.0
0.1 10.39999999998541 0.0
0.1 10.49999999998556 0.0
0.1 10.59999999998571 0.0
0.1 10.69999999998586 0.0
0.1 10.79999999998601 0.0
0.1 10.89999999998616 0.0
0.1 10.99999999998632 0.0
0.1 11.09999999998647 0.0
0.1 11.19999999998662 0.0
0.1 11.29999999998677 0.0
0.1 11.39999999998693 0.0
0.1 11.49999999998708 0.0
0.1 11.59999999998723 0.0
0.1 11.69999999998738 0.0
0.1 11.79999999998754 0.0
0.1 11.89999999998769 0.0
0.1 11.99999999998784 0.0
0.1 12.09999999998799 0.0
0.1 12.19999999998814 0.0
0.1 12.2999999999883 0.0
0.1 12.39999999998845 0.0
0.1 12.4999999999886 0.0
0.1 12.59999999998875 0.0
0.1 12.6999999999889 0.0
0.1 12.79999999998905 0.0
0.1 12.89999999998921 0.0
0.1 12.99999999998936 0.0
0.1 13.09999999998951 0.0
0.1 13.19999999998966 0.0
0.1 13.29999999998982 0.0
0.1 13.39999999998997 0.0
0.1 13.49999999999012 0.0
0.1 13.59999999999027 0.0
0.1 13.69999999999042 0.0
0.1 13.79999999999057 0.0
0.1 13.89999999999073 0.0
0.1 13.99999999999088 0.0
0.1 14.09999999999103 0.0
0.1 14.19999999999118 0.0
0.1 14.29999999999134 0.0
0.1 14.39999999999149 0.0
0.1 14.49999999999164 0.0
0.1 14.59999999999179 0.0
0.1 14.69999999999194 0.0
0.1 14.7999999999921 0.0
0.1 14.89999999999225 0.0
0.1 14.9999999999924 0.0
0.1 15.09999999999255 0.0
0.1 15.1999999999927 0.0
0.1 15.29999999999285 0.0
0.1 15.39999999999301 0.0
0.1 15.49999999999316 0.0
0.1 15.59999999999331 0.0
0.1 15.69999999999346 0.0
0.1 15.79999999999362 0.0
0.1 15.89999999999377 0.0
0.1 15.99999999999392 0.0
0.1 16.09999999999407 0.0
0.1 16.19999999999422 0.0
0.1 16.29999999999437 0.0
0.1 16.39999999999453 0.0
0.1 16.49999999999468 0.0
0.1 16.59999999999483 0.0
0.1 16.69999999999498 0.0
0.1 16.79999999999514 0.0
0.1 16.89999999999528 0.0
0.1 16.99999999999544 0.0
0.1 17.09999999999559 0.0
0.1 17.19999999999574 0.0
0.1 17.29999999999589 0.0
0.1 17.39999999999605 0.0
0.1 17.4999999999962 0.0
0.1 17.59999999999635 0.0
0.1 17.6999999999965 0.0
0.1 17.79999999999665 0.0
0.1 17.89999999999681 0.0
0.1 17.99999999999696 0.0
0.1 18.09999999999711 0.0
0.1 18.19999999999726 0.0
0.1 18.29999999999742 0.0
0.1 18.39999999999757 0.0
0.1 18.49999999999772 0.0
0.1 18.59999999999787 0.0
0.1 18.69999999999802 0.0
0.1 18.79999999999818 0.0
0.1 18.89999999999833 0.0
0.1 18.99999999999848 0.0
0.1 19.09999999999863 0.0
0.1 19.19999999999878 0.0
0.1 19.29999999999894 0.0
0.1 19.39999999999909 0.0
0.1 19.49999999999924 0.0
0.1 19.59999999999939 0.0
0.1 19.69999999999955 0.0
0.1 19.7999999999997 0.0
0.1 19.89999999999985 0.0
0.0 19.9 0.0
0.0 19.8 0.0
0.0 19.7 0.0
0.0 19.6 0.0
0.0 19.5 0.0
0.0 19.4 0.0
0.0 19.3 0.0
0.0 19.2 0.0
0.0 19.1 0.0
0.0 19.0 0.0
0.0 18.9 0.0
0.0 18.8 0.0
0.0 18.7 0.0
0.0 18.6 0.0
0.0 18.5 0.0
0.0 18.4 0.0
0.0 18.3 0.0
0.0 18.2 0.0
0.0 18.1 0.0
0.0 18.0 0.0
0.0 17.9 0.0
0.0 17.8 0.0
0.0 17.7 0.0
0.0 17.6 0.0
0.0 17.5 0.0
0.0 17.4 0.0
0.0 17.3 0.0
0.0 17.2 0.0
0.0 17.09999999999999 0.0
0.0 17.0 0.0
0.0 16.9 0.0
0.0 16.8 0.0
0.0 16.7 0.0
0.0 16.59999999999999 0.0
0.0 16.49999999999999 0.0
0.0 16.4 0.0
0.0 16.29999999999999 0.0
0.0 16.2 0.0
0.0 16.09999999999999 0.0
0.0 15.99999999999999 0.0
0.0 15.89999999999999 0.0
0.0 15.79999999999999 0.0
0.0 15.69999999999999 0.0
0.0 15.59999999999999 0.0
0.0 15.49999999999999 0.0
0.0 15.39999999999999 0.0
0.0 15.29999999999999 0.0
0.0 15.19999999999999 0.0
0.0 15.09999999999999 0.0
0.0 14.99999999999999 0.0
0.0 14.89999999999999 0.0
0.0 14.79999999999999 0.0
0.0 14.69999999999999 0.0
0.0 14.59999999999999 0.0
0.0 14.49999999999999 0.0
0.0 14.39999999999999 0.0
0.0 14.29999999999999 0.0
0.0 14.19999999999999 0.0
0.0 14.09999999999999 0.0
0.0 13.99999999999999 0.0
0.0 13.89999999999999 0.0
0.0 13.79999999999999 0.0
0.0 13.69999999999999 0.0
0.0 13.59999999999999 0.0
0.0 13.49999999999999 0.0
0.0 13.39999999999999 0.0
0.0 13.29999999999999 0.0
0.0 13.19999999999999 0.0
0.0 13.09999999999999 0.0
0.0 12.99999999999999 0.0
0.0 12.89999999999999 0.0
0.0 12.79999999999999 0.0
0.0 12.69999999999999 0.0
0.0 12.59999999999999 0.0
0.0 12.49999999999999 0.0
0.0 12.39999999999999 0.0
0.0 12.29999999999999 0.0
0.0 12.19999999999999 0.0
0.0 12.09999999999999 0.0
0.0 11.99999999999999 0.0
0.0 11.89999999999999 0.0
0.0 11.79999999999999 0.0
0.0 11.69999999999999 0.0
0.0 11.59999999999999 0.0
0.0 11.49999999999999 0.0
0.0 11.39999999999999 0.0
0.0 11.29999999999999 0.0
0.0 11.19999999999999 0.0
0.0 11.09999999999999 0.0
0.0 10.99999999999999 0.0
0.0 10.89999999999999 0.0
0.0 10.79999999999999 0.0
0.0 10.69999999999999 0.0
0.0 10.59999999999999 0.0
0.0 10.49999999999999 0.0
0.0 10.39999999999999 0.0
0.0 10.29999999999999 0.0
0.0 10.19999999999999 0.0
0.0 10.09999999999999 0.0
0.0 9.999999999999993 0.0
0.0 9.899999999999993 0.0
0.0 9.799999999999994 0.0
0.0 9.699999999999992 0.0
0.0 9.599999999999993 0.0
0.0 9.499999999999993 0.0
0.0 9.399999999999993 0.0
0.0 9.299999999999995 0.0
0.0 9.199999999999996 0.0
0.0 9.099999999999994 0.0
0.0 8.999999999999995 0.0
0.0 8.899999999999995 0.0
0.0 8.799999999999994 0.0
0.0 8.699999999999994 0.0
0.0 8.599999999999994 0.0
0.0 8.499999999999995 0.0
0.0 8.399999999999995 0.0
0.0 8.299999999999994 0.0
0.0 8.199999999999994 0.0
0.0 8.099999999999994 0.0
0.0 7.999999999999993 0.0
0.0 7.899999999999995 0.0
0.0 7.799999999999995 0.0
0.0 7.699999999999996 0.0
0.0 7.599999999999996 0.0
0.0 7.499999999999996 0.0
0.0 7.399999999999995 0.0
0.0 7.299999999999995 0.0
0.0 7.199999999999996 0.0
0.0 7.099999999999994 0.0
0.0 6.999999999999995 0.0
0.0 6.899999999999995 0.0
0.0 6.799999999999995 0.0
0.0 6.699999999999996 0.0
0.0 6.599999999999994 0.0
0.0 6.499999999999995 0.0
0.0 6.399999999999997 0.0
0.0 6.299999999999997 0.0
0.0 6.199999999999996 0.0
0.0 6.099999999999996 0.0
0.0 5.999999999999996 0.0
0.0 5.899999999999997 0.0
0.0 5.799999999999997 0.0
0.0 5.699999999999996 0.0
0.0 5.599999999999996 0.0
0.0 5.499999999999996 0.0
0.0 5.399999999999995 0.0
0.0 5.299999999999995 0.0
0.0 5.199999999999996 0.0
0.0 5.099999999999996 0.0
0.0 4.999999999999998 0.0
0.0 4.899999999999999 0.0
0.0 4.799999999999997 0.0
0.0 4.699999999999998 0.0
0.0 4.599999999999998 0.0
0.0 4.499999999999996 0.0
0.0 4.399999999999997 0.0
0.0 4.299999999999997 0.0
0.0 4.199999999999998 0.0
0.0 4.099999999999998 0.0
0.0 3.999999999999996 0.0
0.0 3.899999999999999 0.0
0.0 3.799999999999997 0.0
0.0 3.699999999999996 0.0
0.0 3.599999999999998 0.0
0.0 3.5 0.0
0.0 3.399999999999999 0.0
0.0 3.299999999999997 0.0
0.0 3.199999999999999 0.0
0.0 3.099999999999998 0.0
0.0 3.0 0.0
0.0 2.899999999999999 0.0
0.0 2.799999999999997 0.0
0.0 2.699999999999999 0.0
0.0 2.599999999999998 0.0
0.0 2.499999999999996 0.0
0.0 2.399999999999999 0.0
0.0 2.299999999999997 0.0
0.0 2.199999999999999 0.0
0.0 2.100000000000001 0.0
0.0 2.0 0.0
0.0 1.899999999999999 0.0
0.0 1.800000000000001 0.0
0.0 1.699999999999999 0.0
0.0 1.599999999999998 0.0
0.0 1.5 0.0
0.0 1.399999999999999 0.0
0.0 1.299999999999997 0.0
0.0 1.199999999999999 0.0
0.0 1.099999999999998 0.0
0.0 1.0 0.0
0.0 0.8999999999999986 0.0
0.0 0.8000000000000007 0.0
0.0 0.6999999999999993 0.0
0.0 0.6000000000000014 0.0
0.0 0.5 0.0
0.0 0.3999999999999986 0.0
0.0 0.3000000000000007 0.0
0.0 0.1999999999999993 0.0
[...]
POINT_DATA 804
VECTORS displacement double
0.0 0.0 0.0
0.0 0.0 0.0
0.0 -0.0017882548391382265 0.0
0.0 -0.0017882548391382454 0.0
0.0 0.0 0.0
0.0 0.0 0.0
0.0 -0.001788254839138226 0.0
0.0 -0.0017882548391382287 0.0
0.0 -2.5433485904185773e-76 0.0
0.0 3.7750609461980004e-76 0.0
0.0 1.3575712449323927e-74 0.0
0.0 -2.225558560667605e-73 0.0
0.0 2.1751061107819074e-72 0.0
0.0 -1.4459144043298685e-71 0.0
0.0 4.430440712486248e-71 0.0
0.0 4.257894050718535e-70 0.0
0.0 -8.903517145064597e-69 0.0
0.0 8.876484837984336e-68 0.0
0.0 -5.438501922553029e-67 0.0
0.0 8.678655205780342e-67 0.0
0.0 2.664137783465607e-65 0.0
0.0 -3.9650102688595984e-64 0.0
0.0 3.108674782753089e-63 0.0
0.0 -1.10863226499477e-62 0.0
0.0 -7.682900832025023e-62 0.0
0.0 1.6603866253986255e-60 0.0
0.0 -1.4281699012209295e-59 0.0
0.0 5.388612646254919e-59 0.0
0.0 3.342199961671231e-58 0.0
0.0 -7.251213938815333e-57 0.0
0.0 5.734701538825609e-56 0.0
0.0 -1.4480239632418151e-55 0.0
0.0 -2.1653680235755338e-54 0.0
0.0 3.154849355152461e-53 0.0
0.0 -1.811799351552303e-52 0.0
0.0 -1.941137489233274e-52 0.0
0.0 1.3186635217160913e-50 0.0
0.0 -1.1260707061752674e-49 0.0
0.0 2.2922506236594577e-49 0.0
0.0 4.799876413860847e-48 0.0
0.0 -5.604245745719082e-47 0.0
0.0 1.919512578909575e-46 0.0
0.0 1.7330470835103647e-45 0.0
0.0 -2.5353907078782425e-44 0.0
0.0 9.817072523026125e-44 0.0
0.0 7.191700622910912e-43 0.0
0.0 -1.0945305243684949e-41 0.0
0.0 3.7330692299232516e-41 0.0
0.0 3.5852659635007706e-40 0.0
0.0 -4.4643727113512216e-39 0.0
0.0 8.776417934533467e-39 0.0
0.0 1.898790139215821e-37 0.0
0.0 -1.591082718495006e-36 0.0
0.0 -1.2068150123334955e-36 0.0
0.0 9.056385663058274e-35 0.0
0.0 -3.974995731158211e-34 0.0
0.0 -2.7648370516179825e-33 0.0
0.0 3.283347606862679e-32 0.0
0.0 -3.966491735075333e-34 0.0
0.0 -1.6331005339643895e-30 0.0
0.0 6.041527365028627e-30 0.0
0.0 5.867909693454383e-29 0.0
0.0 -4.710326449965164e-28 0.0
0.0 -1.4473806572609932e-27 0.0
0.0 2.551728190283675e-26 0.0
0.0 1.0314519291794683e-26 0.0
0.0 -1.1702403584870155e-24 0.0
0.0 1.3760475821670169e-24 0.0
0.0 4.9382989899098607e-23 0.0
0.0 -1.0465651251291838e-22 0.0
0.0 -2.021004610012897e-21 0.0
0.0 4.8621336021572854e-21 0.0
0.0 8.253593879878581e-20 0.0
0.0 -1.5910570578427403e-19 0.0
0.0 -3.3466608270270697e-18 0.0
0.0 2.3309913831948473e-18 0.0
0.0 1.2868414966218777e-16 0.0
0.0 1.5201898603512273e-16 0.0
0.0 -4.259092873846756e-15 0.0
0.0 -1.6313930782871313e-14 0.0
0.0 9.611509293252643e-14 0.0
0.0 8.608556991765036e-13 0.0
0.0 1.402725577903725e-13 0.0
0.0 -2.620682639044135e-11 0.0
0.0 -1.2334336317647694e-10 0.0
0.0 1.5228260863568925e-10 0.0
0.0 4.2839348092968885e-09 0.0
0.0 2.0699091146201283e-08 0.0
0.0 1.7584066926090273e-08 0.0
0.0 -3.971727092347051e-07 0.0
0.0 -3.2366108987726973e-06 0.0
0.0 -1.5492336073184147e-05 0.0
0.0 -5.5101273421532356e-05 0.0
0.0 -0.00015620939140670065 0.0
0.0 -0.00036367780609207224 0.0
0.0 -0.0007051846312194128 0.0
0.0 -0.001146675849316035 0.0
0.0 -0.001571507397112037 0.0
0.0 -0.0018342357522291577 0.0
0.0 -0.0018766038325114612 0.0
0.0 -0.0017928143431635566 0.0
0.0 -0.0017403827277046153 0.0
0.0 -0.001774094959175788 0.0
0.0 -0.001815104231340966 0.0
0.0 -0.0017987045125791529 0.0
0.0 -0.0017698771278840074 0.0
0.0 -0.0017823687692628389 0.0
0.0 -0.0018017846702285576 0.0
0.0 -0.0017889191789273876 0.0
0.0 -0.0017776390357563036 0.0
0.0 -0.001791163925308539 0.0
0.0 -0.0017946461635644328 0.0
0.0 -0.0017824327473242565 0.0
0.0 -0.0017858722423081917 0.0
0.0 -0.0017937650411626103 0.0
0.0 -0.001786107414003147 0.0
0.0 -0.0017847331987244422 0.0
0.0 -0.001792046602730043 0.0
0.0 -0.0017876386485237395 0.0
0.0 -0.001785041158476068 0.0
0.0 -0.0017909587742306855 0.0
0.0 -0.0017879289926669552 0.0
0.0 -0.001785669850769347 0.0
0.0 -0.0017904429330982308 0.0
0.0 -0.0017876389065223633 0.0
0.0 -0.0017863875235529527 0.0
0.0 -0.001790161373537633 0.0
0.0 -0.0017871235694616495 0.0
0.0 -0.0017872282865735829 0.0
0.0 -0.001789785643256918 0.0
0.0 -0.001786665891080358 0.0
0.0 -0.0017881741968800368 0.0
0.0 -0.001789085675552027 0.0
0.0 -0.0017865868080228064 0.0
0.0 -0.0017889892904403822 0.0
0.0 -0.0017880815631192244 0.0
0.0 -0.0017871298963018354 0.0
0.0 -0.0017892417075865458 0.0
0.0 -0.0017871896718825236 0.0
0.0 -0.0017881480262889305 0.0
0.0 -0.0017886518184425785 0.0
0.0 -0.0017870528814627135 0.0
0.0 -0.0017889272056118512 0.0
0.0 -0.0017876186657112012 0.0
0.0 -0.0017878592230744805 0.0
0.0 -0.001788696256803147 0.0
0.0 -0.001787193828960169 0.0
0.0 -0.0017887472601351194 0.0
0.0 -0.0017877052603771282 0.0
0.0 -0.0017879147778032027 0.0
0.0 -0.0017885449898362603 0.0
0.0 -0.001787337641588987 0.0
0.0 -0.0017887111296281876 0.0
0.0 -0.0017875862954045694 0.0
0.0 -0.0017881634671877906 0.0
0.0 -0.0017882517976079702 0.0
0.0 -0.0017875659571421462 0.0
0.0 -0.0017886398480780863 0.0
0.0 -0.001787457363047656 0.0
0.0 -0.001788474164640717 0.0
0.0 -0.0017878319134749486 0.0
0.0 -0.0017879910069425106 0.0
0.0 -0.001788316095787093 0.0
0.0 -0.0017875976899875698 0.0
0.0 -0.0017885571841818688 0.0
0.0 -0.00178753405854417 0.0
0.0 -0.0017884519400114447 0.0
0.0 -0.0017877736681141702 0.0
0.0 -0.0017881278819899453 0.0
0.0 -0.0017881275614312065 0.0
0.0 -0.001787794484205524 0.0
0.0 -0.0017884007135515532 0.0
0.0 -0.0017876074792126417 0.0
0.0 -0.0017884901167158622 0.0
0.0 -0.0017876141995098235 0.0
0.0 -0.0017883988880419198 0.0
0.0 -0.0017877715987837358 0.0
0.0 -0.0017881970118806558 0.0
0.0 -0.0017879958629332306 0.0
0.0 -0.0017879705891071234 0.0
0.0 -0.0017882076008153816 0.0
0.0 -0.0017877862160403627 0.0
0.0 -0.0017883562896907357 0.0
0.0 -0.0017876774577426106 0.0
0.0 -0.001788424379539726 0.0
0.0 -0.001787648014659401 0.0
0.0 -0.0017884191870003207 0.0
0.0 -0.0017876825941573306 0.0
0.0 -0.0017883610716212654 0.0
0.0 -0.0017877583233315928 0.0
0.0 -0.0017882733422273686 0.0
0.0 -0.0017878530200215715 0.0
0.0 -0.0017881759863180155 0.0
0.0 -0.001787949522689402 0.0
0.0 -0.0017880830672968476 0.0
0.0 -0.0017880368626049183 0.0
0.0 -0.0017880026584722484 0.0
0.0 -0.0017881095371401286 0.0
0.0 -0.0017879380841894223 0.0
0.0 -0.0017881659848032012 0.0
0.0 -0.0017878895494055115 0.0
0.0 -0.0017882069812184705 0.0
0.0 -0.0017878556311381733 0.0
0.0 -0.0017882343117816815 0.0
0.0 -0.0017878344175667933 0.0
0.0 -0.001788249825205587 0.0
0.0 -0.0017878242704425084 0.0
0.0 -0.0017878242704425134 0.0
0.0 -0.0017882498252055929 0.0
0.0 -0.0017878344175667861 0.0
0.0 -0.0017882343117816705 0.0
0.0 -0.0017878556311381655 0.0
0.0 -0.0017882069812184805 0.0
0.0 -0.0017878895494055052 0.0
0.0 -0.0017881659848032114 0.0
0.0 -0.001787938084189421 0.0
0.0 -0.0017881095371401307 0.0
0.0 -0.0017880026584722573 0.0
0.0 -0.0017880368626049185 0.0
0.0 -0.0017880830672968593 0.0
0.0 -0.0017879495226893914 0.0
0.0 -0.0017881759863180113 0.0
0.0 -0.0017878530200215834 0.0
0.0 -0.001788273342227365 0.0
0.0 -0.0017877583233315787 0.0
0.0 -0.0017883610716212806 0.0
0.0 -0.0017876825941573267 0.0
0.0 -0.0017884191870003443 0.0
0.0 -0.0017876480146594102 0.0
0.0 -0.0017884243795397185 0.0
0.0 -0.001787677457742622 0.0
0.0 -0.0017883562896907244 0.0
0.0 -0.0017877862160403672 0.0
0.0 -0.0017882076008153575 0.0
0.0 -0.0017879705891071553 0.0
0.0 -0.0017879958629332317 0.0
0.0 -0.0017881970118806805 0.0
0.0 -0.0017877715987837301 0.0
0.0 -0.0017883988880419302 0.0
0.0 -0.0017876141995098016 0.0
0.0 -0.001788490116715869 0.0
0.0 -0.0017876074792126464 0.0
0.0 -0.001788400713551551 0.0
0.0 -0.0017877944842055343 0.0
0.0 -0.001788127561431179 0.0
0.0 -0.0017881278819899826 0.0
0.0 -0.001787773668114137 0.0
0.0 -0.001788451940011462 0.0
0.0 -0.001787534058544154 0.0
0.0 -0.0017885571841818643 0.0
0.0 -0.0017875976899875859 0.0
0.0 -0.001788316095787061 0.0
0.0 -0.0017879910069425755 0.0
0.0 -0.001787831913474893 0.0
0.0 -0.001788474164640739 0.0
0.0 -0.001787457363047634 0.0
0.0 -0.0017886398480780699 0.0
0.0 -0.0017875659571421918 0.0
0.0 -0.0017882517976079034 0.0
0.0 -0.0017881634671878684 0.0
0.0 -0.0017875862954045128 0.0
0.0 -0.001788711129628204 0.0
0.0 -0.0017873376415889863 0.0
0.0 -0.0017885449898361987 0.0
0.0 -0.0017879147778033207 0.0
0.0 -0.0017877052603770358 0.0
0.0 -0.0017887472601351752 0.0
0.0 -0.0017871938289601855 0.0
0.0 -0.001788696256803063 0.0
0.0 -0.001787859223074614 0.0
0.0 -0.0017876186657110728 0.0
0.0 -0.0017889272056119238 0.0
0.0 -0.0017870528814627384 0.0
0.0 -0.001788651818442437 0.0
0.0 -0.0017881480262891298 0.0
0.0 -0.001787189671882387 0.0
0.0 -0.0017892417075865447 0.0
0.0 -0.0017871298963020002 0.0
0.0 -0.0017880815631189913 0.0
0.0 -0.0017889892904405747 0.0
0.0 -0.0017865868080228062 0.0
0.0 -0.0017890856755518165 0.0
0.0 -0.001788174196880345 0.0
0.0 -0.0017866658910801556 0.0
0.0 -0.001789785643256827 0.0
0.0 -0.0017872282865739123 0.0
0.0 -0.001787123569461288 0.0
0.0 -0.001790161373537703 0.0
0.0 -0.0017863875235532923 0.0
0.0 -0.001787638906521834 0.0
0.0 -0.0017904429330984693 0.0
0.0 -0.0017856698507696905 0.0
0.0 -0.0017879289926662663 0.0
0.0 -0.0017909587742310394 0.0
0.0 -0.0017850411584765238 0.0
0.0 -0.0017876386485228216 0.0
0.0 -0.001792046602730366 0.0
0.0 -0.001784733198725253 0.0
0.0 -0.0017861074140020114 0.0
0.0 -0.0017937650411625587 0.0
0.0 -0.0017858722423096875 0.0
0.0 -0.0017824327473232387 0.0
0.0 -0.0017946461635632114 0.0
0.0 -0.0017911639253106063 0.0
0.0 -0.0017776390357567642 0.0
0.0 -0.0017889191789244182 0.0
0.0 -0.00180178467022909 0.0
0.0 -0.001782368769266761 0.0
0.0 -0.001769877127882464 0.0
0.0 -0.0017987045125736837 0.0
0.0 -0.0018151042313431362 0.0
0.0 -0.0017740949591843946 0.0
0.0 -0.0017403827277037915 0.0
0.0 -0.0017928143431490218 0.0
0.0 -0.001876603832503869 0.0
0.0 -0.0018342357522538584 0.0
0.0 -0.0015715073971728387 0.0
0.0 -0.0011466758493932337 0.0
0.0 -0.0007051846312882575 0.0
0.0 -0.00036367780613912927 0.0
0.0 -0.00015620939143221792 0.0
0.0 -5.510127343262009e-05 0.0
0.0 -1.5492336077008484e-05 0.0
0.0 -3.23661089978141e-06 0.0
0.0 -3.971727094165879e-07 0.0
0.0 1.7584066913898795e-08 0.0
0.0 2.0699091150610682e-08 0.0
0.0 4.283934810891498e-09 0.0
0.0 1.5228260882146794e-10 0.0
0.0 -1.2334336319768197e-10 0.0
0.0 -2.620682640066041e-11 0.0
0.0 1.402725569188169e-13 0.0
0.0 8.608556993897209e-13 0.0
0.0 9.6115092985398e-14 0.0
0.0 -1.6313930783885387e-14 0.0
0.0 -4.25909287549926e-15 0.0
0.0 1.520189859394337e-16 0.0
0.0 1.2868414970236287e-16 0.0
0.0 2.3309913878493554e-18 0.0
0.0 -3.3466608279076453e-18 0.0
0.0 -1.5910570593094297e-19 0.0
0.0 8.253593881818463e-20 0.0
0.0 4.862133605996692e-21 0.0
0.0 -2.02100461047621e-21 0.0
0.0 -1.0465651260111154e-22 0.0
0.0 4.9382989911139454e-23 0.0
0.0 1.3760475839191226e-24 0.0
0.0 -1.170240358807023e-24 0.0
0.0 1.0314519264594267e-26 0.0
0.0 2.5517281910887725e-26 0.0
0.0 -1.4473806570694572e-27 0.0
0.0 -4.710326451748906e-28 0.0
0.0 5.867909694120143e-29 0.0
0.0 6.041527368201137e-30 0.0
0.0 -1.6331005343179214e-30 0.0
0.0 -3.966492092430894e-34 0.0
0.0 3.283347607828178e-32 0.0
0.0 -2.7648370517492088e-33 0.0
0.0 -3.974995732847037e-34 0.0
0.0 9.056385664854479e-35 0.0
0.0 -1.2068150109865566e-36 0.0
0.0 -1.5910827189526138e-36 0.0
0.0 1.8987901394548577e-37 0.0
0.0 8.7764179398896e-39 0.0
0.0 -4.4643727123451377e-39 0.0
0.0 3.5852659637116844e-40 0.0
0.0 3.733069231357236e-41 0.0
0.0 -1.0945305245793375e-41 0.0
0.0 7.191700623255895e-43 0.0
0.0 9.817072525810112e-44 0.0
0.0 -2.535390708263358e-44 0.0
0.0 1.7330470835384918e-45 0.0
0.0 1.9195125795336707e-46 0.0
0.0 -5.604245746737299e-47 0.0
0.0 4.799876414574086e-48 0.0
0.0 2.2922506237305544e-49 0.0
0.0 -1.1260707062177732e-49 0.0
0.0 1.3186635216529764e-50 0.0
0.0 -1.9411374858551046e-52 0.0
0.0 -1.811799352277784e-52 0.0
0.0 3.1548493563133587e-53 0.0
0.0 -2.1653680252639688e-54 0.0
0.0 -1.4480239606977512e-55 0.0
0.0 5.734701534601827e-56 0.0
0.0 -7.251213931348165e-57 0.0
0.0 3.342199948365019e-58 0.0
0.0 5.388612669635657e-59 0.0
0.0 -1.428169905303097e-59 0.0
0.0 1.6603866326115167e-60 0.0
0.0 -7.682900962920041e-62 0.0
0.0 -1.1086322404727692e-62 0.0
0.0 3.1086747354541775e-63 0.0
0.0 -3.9650101754713285e-64 0.0
0.0 2.6641375957963235e-65 0.0
0.0 8.678659026003089e-67 0.0
0.0 -5.438502707167946e-67 0.0
0.0 8.876486458385383e-68 0.0
0.0 -8.903520500387551e-69 0.0
0.0 4.257901000590531e-70 0.0
0.0 4.430426338546892e-71 0.0
0.0 -1.4459114396664086e-71 0.0
0.0 2.1751000182708496e-72 0.0
0.0 -2.2255460928039296e-73 0.0
0.0 1.3575458475409327e-74 0.0
0.0 3.77557509388662e-76 0.0
0.0 -2.5434483334652103e-76 0.0
0.0 -2.5434483364108953e-76 0.0
0.0 3.775575103468766e-76 0.0
0.0 1.3575458476756622e-74 0.0
0.0 -2.22554609342168e-73 0.0
0.0 2.1751000190228412e-72 0.0
0.0 -1.4459114403724418e-71 0.0
0.0 4.430426344388063e-71 0.0
0.0 4.257900996141403e-70 0.0
0.0 -8.903520497223917e-69 0.0
0.0 8.876486456307424e-68 0.0
0.0 -5.438502705971089e-67 0.0
0.0 8.678659020836666e-67 0.0
0.0 2.66413759584387e-65 0.0
0.0 -3.965010175266361e-64 0.0
0.0 3.10867473518766e-63 0.0
0.0 -1.1086322402760595e-62 0.0
0.0 -7.682900963672506e-62 0.0
0.0 1.6603866325855366e-60 0.0
0.0 -1.4281699052351425e-59 0.0
0.0 5.388612669113586e-59 0.0
0.0 3.342199948459337e-58 0.0
0.0 -7.251213931100251e-57 0.0
0.0 5.734701534293051e-56 0.0
0.0 -1.4480239605723831e-55 0.0
0.0 -2.165368025147107e-54 0.0
0.0 3.15484935607547e-53 0.0
0.0 -1.8117993520922057e-52 0.0
0.0 -1.9411374860913102e-52 0.0
0.0 1.3186635215343229e-50 0.0
0.0 -1.1260707060707865e-49 0.0
0.0 2.2922506230629845e-49 0.0
0.0 4.799876414198931e-48 0.0
0.0 -5.604245745909371e-47 0.0
0.0 1.919512579015928e-46 0.0
0.0 1.7330470834512122e-45 0.0
0.0 -2.535390707845497e-44 0.0
0.0 9.817072522846093e-44 0.0
0.0 7.191700623009389e-43 0.0
0.0 -1.0945305243738771e-41 0.0
0.0 3.7330692299524676e-41 0.0
0.0 3.5852659634849578e-40 0.0
0.0 -4.4643727113427595e-39 0.0
0.0 8.776417934487986e-39 0.0
0.0 1.898790139218286e-37 0.0
0.0 -1.5910827184963064e-36 0.0
0.0 -1.2068150123264551e-36 0.0
0.0 9.056385663054215e-35 0.0
0.0 -3.974995731156047e-34 0.0
0.0 -2.7648370516190037e-33 0.0
0.0 3.28334760686313e-32 0.0
0.0 -3.9664917352757386e-34 0.0
0.0 -1.6331005339642795e-30 0.0
0.0 6.041527365028181e-30 0.0
0.0 5.867909693454678e-29 0.0
0.0 -4.7103264499653135e-28 0.0
0.0 -1.4473806572608752e-27 0.0
0.0 2.5517281902836283e-26 0.0
0.0 1.0314519291793732e-26 0.0
0.0 -1.1702403584870262e-24 0.0
0.0 1.3760475821670307e-24 0.0
0.0 4.938298989909882e-23 0.0
0.0 -1.0465651251291711e-22 0.0
0.0 -2.021004610012877e-21 0.0
0.0 4.862133602157208e-21 0.0
0.0 8.253593879878584e-20 0.0
0.0 -1.5910570578426958e-19 0.0
0.0 -3.3466608270270466e-18 0.0
0.0 2.3309913831943554e-18 0.0
0.0 1.2868414966218826e-16 0.0
0.0 1.5201898603511906e-16 0.0
0.0 -4.259092873846606e-15 0.0
0.0 -1.6313930782872158e-14 0.0
0.0 9.611509293252902e-14 0.0
0.0 8.608556991765158e-13 0.0
0.0 1.4027255779022785e-13 0.0
0.0 -2.620682639044124e-11 0.0
0.0 -1.2334336317647619e-10 0.0
0.0 1.5228260863567925e-10 0.0
0.0 4.2839348092969406e-09 0.0
0.0 2.0699091146201204e-08 0.0
0.0 1.7584066926090895e-08 0.0
0.0 -3.9717270923470053e-07 0.0
0.0 -3.2366108987726906e-06 0.0
0.0 -1.54923360731842e-05 0.0
0.0 -5.510127342153243e-05 0.0
0.0 -0.00015620939140670065 0.0
0.0 -0.00036367780609207354 0.0
0.0 -0.0007051846312194123 0.0
0.0 -0.001146675849316033 0.0
0.0 -0.0015715073971120353 0.0
0.0 -0.001834235752229162 0.0
0.0 -0.0018766038325114564 0.0
0.0 -0.0017928143431635588 0.0
0.0 -0.0017403827277046218 0.0
0.0 -0.001774094959175781 0.0
0.0 -0.001815104231340976 0.0
0.0 -0.00179870451257915 0.0
0.0 -0.0017698771278840109 0.0
0.0 -0.0017823687692628382 0.0
0.0 -0.0018017846702285537 0.0
0.0 -0.0017889191789273882 0.0
0.0 -0.0017776390357563093 0.0
0.0 -0.0017911639253085402 0.0
0.0 -0.0017946461635644274 0.0
0.0 -0.0017824327473242548 0.0
0.0 -0.001785872242308195 0.0
0.0 -0.0017937650411626073 0.0
0.0 -0.0017861074140031528 0.0
0.0 -0.0017847331987244472 0.0
0.0 -0.0017920466027300382 0.0
0.0 -0.001787638648523736 0.0
0.0 -0.0017850411584760528 0.0
0.0 -0.0017909587742306863 0.0
0.0 -0.0017879289926669478 0.0
0.0 -0.001785669850769347 0.0
0.0 -0.0017904429330982449 0.0
0.0 -0.0017876389065223585 0.0
0.0 -0.0017863875235529416 0.0
0.0 -0.001790161373537624 0.0
0.0 -0.0017871235694616643 0.0
0.0 -0.0017872282865735592 0.0
0.0 -0.0017897856432569114 0.0
0.0 -0.0017866658910803592 0.0
0.0 -0.0017881741968800355 0.0
0.0 -0.0017890856755520376 0.0
0.0 -0.001786586808022817 0.0
0.0 -0.0017889892904403982 0.0
0.0 -0.0017880815631192246 0.0
0.0 -0.0017871298963018426 0.0
0.0 -0.0017892417075865395 0.0
0.0 -0.0017871896718825216 0.0
0.0 -0.0017881480262889376 0.0
0.0 -0.0017886518184425668 0.0
0.0 -0.001787052881462697 0.0
0.0 -0.0017889272056118627 0.0
0.0 -0.0017876186657111907 0.0
0.0 -0.0017878592230744944 0.0
0.0 -0.0017886962568031456 0.0
0.0 -0.0017871938289601814 0.0
0.0 -0.0017887472601351264 0.0
0.0 -0.0017877052603771295 0.0
0.0 -0.0017879147778032162 0.0
0.0 -0.0017885449898362472 0.0
0.0 -0.001787337641588976 0.0
0.0 -0.0017887111296281883 0.0
0.0 -0.0017875862954045663 0.0
0.0 -0.001788163467187798 0.0
0.0 -0.0017882517976079558 0.0
0.0 -0.001787565957142135 0.0
0.0 -0.0017886398480780853 0.0
0.0 -0.0017874573630476593 0.0
0.0 -0.0017884741646407181 0.0
0.0 -0.001787831913474956 0.0
0.0 -0.001787991006942526 0.0
0.0 -0.001788316095787098 0.0
0.0 -0.0017875976899875646 0.0
0.0 -0.0017885571841818745 0.0
0.0 -0.0017875340585441748 0.0
0.0 -0.0017884519400114519 0.0
0.0 -0.0017877736681141663 0.0
0.0 -0.0017881278819899397 0.0
0.0 -0.0017881275614311987 0.0
0.0 -0.0017877944842055158 0.0
0.0 -0.0017884007135515639 0.0
0.0 -0.0017876074792126388 0.0
0.0 -0.0017884901167158774 0.0
0.0 -0.0017876141995098237 0.0
0.0 -0.0017883988880419304 0.0
0.0 -0.0017877715987837342 0.0
0.0 -0.0017881970118806517 0.0
0.0 -0.0017879958629332324 0.0
0.0 -0.0017879705891071368 0.0
0.0 -0.0017882076008153695 0.0
0.0 -0.0017877862160403685 0.0
0.0 -0.0017883562896907272 0.0
0.0 -0.001787677457742607 0.0
0.0 -0.0017884243795397202 0.0
0.0 -0.0017876480146594043 0.0
0.0 -0.0017884191870003226 0.0
0.0 -0.0017876825941573183 0.0
0.0 -0.0017883610716212762 0.0
0.0 -0.0017877583233315822 0.0
0.0 -0.0017882733422273558 0.0
0.0 -0.001787853020021582 0.0
0.0 -0.001788175986318022 0.0
0.0 -0.0017879495226893979 0.0
0.0 -0.00178808306729685 0.0
0.0 -0.0017880368626049146 0.0
0.0 -0.0017880026584722534 0.0
0.0 -0.0017881095371401316 0.0
0.0 -0.001787938084189418 0.0
0.0 -0.0017881659848032116 0.0
0.0 -0.0017878895494055141 0.0
0.0 -0.0017882069812184824 0.0
0.0 -0.0017878556311381696 0.0
0.0 -0.0017882343117816752 0.0
0.0 -0.0017878344175667874 0.0
0.0 -0.0017882498252055877 0.0
0.0 -0.0017878242704425062 0.0
0.0 -0.0017878242704425125 0.0
0.0 -0.0017882498252055855 0.0
0.0 -0.0017878344175667766 0.0
0.0 -0.0017882343117816683 0.0
0.0 -0.0017878556311381616 0.0
0.0 -0.00178820698121847 0.0
0.0 -0.0017878895494055167 0.0
0.0 -0.0017881659848031934 0.0
0.0 -0.0017879380841894204 0.0
0.0 -0.0017881095371401205 0.0
0.0 -0.0017880026584722573 0.0
0.0 -0.001788036862604925 0.0
0.0 -0.0017880830672968582 0.0
0.0 -0.0017879495226893977 0.0
0.0 -0.0017881759863180176 0.0
0.0 -0.0017878530200215645 0.0
0.0 -0.0017882733422273677 0.0
0.0 -0.001787758323331601 0.0
0.0 -0.0017883610716212758 0.0
0.0 -0.0017876825941573354 0.0
0.0 -0.0017884191870003328 0.0
0.0 -0.0017876480146594173 0.0
0.0 -0.0017884243795397243 0.0
0.0 -0.0017876774577426108 0.0
0.0 -0.0017883562896907265 0.0
0.0 -0.0017877862160403737 0.0
0.0 -0.0017882076008153731 0.0
0.0 -0.0017879705891071273 0.0
0.0 -0.0017879958629332133 0.0
0.0 -0.001788197011880671 0.0
0.0 -0.0017877715987837316 0.0
0.0 -0.001788398888041932 0.0
0.0 -0.0017876141995098115 0.0
0.0 -0.0017884901167158553 0.0
0.0 -0.0017876074792126425 0.0
0.0 -0.0017884007135515346 0.0
0.0 -0.001787794484205537 0.0
0.0 -0.0017881275614311774 0.0
0.0 -0.0017881278819899767 0.0
0.0 -0.0017877736681141336 0.0
0.0 -0.0017884519400114612 0.0
0.0 -0.001787534058544162 0.0
0.0 -0.0017885571841818563 0.0
0.0 -0.0017875976899875956 0.0