# vtk DataFile Version 2.0
data_942
ASCII
DATASET UNSTRUCTURED_GRID
POINTS 804 float
0.0 0.0 0.0
0.1 0.0 0.0
0.1 20.0 0.0
0.0 20.0 0.0
0.0 0.0 -0.1
0.1 0.0 -0.1
0.1 20.0 -0.1
0.0 20.0 -0.1
0.1 0.09999999999992462 0.0
0.1 0.1999999999998517 0.0
0.1 0.2999999999997818 0.0
0.1 0.399999999999712 0.0
0.1 0.4999999999996377 0.0
0.1 0.5999999999995541 0.0
0.1 0.6999999999994495 0.0
0.1 0.7999999999993355 0.0
0.1 0.8999999999992101 0.0
0.1 0.999999999999102 0.0
0.1 1.099999999999006 0.0
0.1 1.199999999998936 0.0
0.1 1.299999999998867 0.0
0.1 1.399999999998797 0.0
0.1 1.499999999998727 0.0
0.1 1.599999999998657 0.0
0.1 1.699999999998587 0.0
0.1 1.799999999998517 0.0
0.1 1.899999999998447 0.0
0.1 1.999999999998378 0.0
0.1 2.099999999998308 0.0
0.1 2.199999999998238 0.0
0.1 2.299999999998168 0.0
0.1 2.399999999998067 0.0
0.1 2.499999999997942 0.0
0.1 2.599999999997706 0.0
0.1 2.699999999997444 0.0
0.1 2.799999999997153 0.0
0.1 2.899999999996861 0.0
0.1 2.999999999996569 0.0
0.1 3.099999999996277 0.0
0.1 3.199999999995984 0.0
0.1 3.299999999995693 0.0
0.1 3.399999999995401 0.0
0.1 3.499999999995108 0.0
0.1 3.599999999994816 0.0
0.1 3.699999999994525 0.0
0.1 3.799999999994232 0.0
0.1 3.89999999999394 0.0
0.1 3.999999999993648 0.0
0.1 4.099999999993356 0.0
0.1 4.199999999993064 0.0
0.1 4.299999999992772 0.0
0.1 4.399999999992479 0.0
0.1 4.499999999992188 0.0
0.1 4.599999999991895 0.0
0.1 4.699999999991603 0.0
0.1 4.799999999991311 0.0
0.1 4.899999999991019 0.0
0.1 4.999999999990727 0.0
0.1 5.099999999990436 0.0
0.1 5.199999999990144 0.0
0.1 5.299999999989851 0.0
0.1 5.399999999989559 0.0
0.1 5.499999999989267 0.0
0.1 5.599999999988975 0.0
0.1 5.699999999988683 0.0
0.1 5.799999999988391 0.0
0.1 5.899999999988099 0.0
0.1 5.999999999987806 0.0
0.1 6.099999999987515 0.0
0.1 6.199999999987222 0.0
0.1 6.299999999986929 0.0
0.1 6.399999999986638 0.0
0.1 6.499999999986345 0.0
0.1 6.599999999986054 0.0
0.1 6.699999999985762 0.0
0.1 6.79999999998547 0.0
0.1 6.899999999985177 0.0
0.1 6.999999999984885 0.0
0.1 7.099999999984593 0.0
0.1 7.199999999984302 0.0
0.1 7.299999999984009 0.0
0.1 7.399999999983717 0.0
0.1 7.499999999983426 0.0
0.1 7.599999999983132 0.0
0.1 7.699999999982841 0.0
0.1 7.799999999982549 0.0
0.1 7.899999999982256 0.0
0.1 7.999999999982034 0.0
0.1 8.099999999981964 0.0
0.1 8.199999999982062 0.0
0.1 8.299999999982214 0.0
0.1 8.399999999982366 0.0
0.1 8.499999999982517 0.0
0.1 8.59999999998267 0.0
0.1 8.699999999982822 0.0
0.1 8.799999999982973 0.0
0.1 8.899999999983125 0.0
0.1 8.999999999983277 0.0
0.1 9.09999999998343 0.0
0.1 9.19999999998358 0.0
0.1 9.299999999983733 0.0
0.1 9.399999999983885 0.0
0.1 9.499999999984038 0.0
0.1 9.599999999984188 0.0
0.1 9.69999999998434 0.0
0.1 9.799999999984493 0.0
0.1 9.899999999984646 0.0
0.1 9.999999999984798 0.0
0.1 10.09999999998495 0.0
0.1 10.1999999999851 0.0
0.1 10.29999999998525 0.0
0.1 10.39999999998541 0.0
0.1 10.49999999998556 0.0
0.1 10.59999999998571 0.0
0.1 10.69999999998586 0.0
0.1 10.79999999998601 0.0
0.1 10.89999999998616 0.0
0.1 10.99999999998632 0.0
0.1 11.09999999998647 0.0
0.1 11.19999999998662 0.0
0.1 11.29999999998677 0.0
0.1 11.39999999998693 0.0
0.1 11.49999999998708 0.0
0.1 11.59999999998723 0.0
0.1 11.69999999998738 0.0
0.1 11.79999999998754 0.0
0.1 11.89999999998769 0.0
0.1 11.99999999998784 0.0
0.1 12.09999999998799 0.0
0.1 12.19999999998814 0.0
0.1 12.2999999999883 0.0
0.1 12.39999999998845 0.0
0.1 12.4999999999886 0.0
0.1 12.59999999998875 0.0
0.1 12.6999999999889 0.0
0.1 12.79999999998905 0.0
0.1 12.89999999998921 0.0
0.1 12.99999999998936 0.0
0.1 13.09999999998951 0.0
0.1 13.19999999998966 0.0
0.1 13.29999999998982 0.0
0.1 13.39999999998997 0.0
0.1 13.49999999999012 0.0
0.1 13.59999999999027 0.0
0.1 13.69999999999042 0.0
0.1 13.79999999999057 0.0
0.1 13.89999999999073 0.0
0.1 13.99999999999088 0.0
0.1 14.09999999999103 0.0
0.1 14.19999999999118 0.0
0.1 14.29999999999134 0.0
0.1 14.39999999999149 0.0
0.1 14.49999999999164 0.0
0.1 14.59999999999179 0.0
0.1 14.69999999999194 0.0
0.1 14.7999999999921 0.0
0.1 14.89999999999225 0.0
0.1 14.9999999999924 0.0
0.1 15.09999999999255 0.0
0.1 15.1999999999927 0.0
0.1 15.29999999999285 0.0
0.1 15.39999999999301 0.0
0.1 15.49999999999316 0.0
0.1 15.59999999999331 0.0
0.1 15.69999999999346 0.0
0.1 15.79999999999362 0.0
0.1 15.89999999999377 0.0
0.1 15.99999999999392 0.0
0.1 16.09999999999407 0.0
0.1 16.19999999999422 0.0
0.1 16.29999999999437 0.0
0.1 16.39999999999453 0.0
0.1 16.49999999999468 0.0
0.1 16.59999999999483 0.0
0.1 16.69999999999498 0.0
0.1 16.79999999999514 0.0
0.1 16.89999999999528 0.0
0.1 16.99999999999544 0.0
0.1 17.09999999999559 0.0
0.1 17.19999999999574 0.0
0.1 17.29999999999589 0.0
0.1 17.39999999999605 0.0
0.1 17.4999999999962 0.0
0.1 17.59999999999635 0.0
0.1 17.6999999999965 0.0
0.1 17.79999999999665 0.0
0.1 17.89999999999681 0.0
0.1 17.99999999999696 0.0
0.1 18.09999999999711 0.0
0.1 18.19999999999726 0.0
0.1 18.29999999999742 0.0
0.1 18.39999999999757 0.0
0.1 18.49999999999772 0.0
0.1 18.59999999999787 0.0
0.1 18.69999999999802 0.0
0.1 18.79999999999818 0.0
0.1 18.89999999999833 0.0
0.1 18.99999999999848 0.0
0.1 19.09999999999863 0.0
0.1 19.19999999999878 0.0
0.1 19.29999999999894 0.0
0.1 19.39999999999909 0.0
0.1 19.49999999999924 0.0
0.1 19.59999999999939 0.0
0.1 19.69999999999955 0.0
0.1 19.7999999999997 0.0
0.1 19.89999999999985 0.0
0.0 19.9 0.0
0.0 19.8 0.0
0.0 19.7 0.0
0.0 19.6 0.0
0.0 19.5 0.0
0.0 19.4 0.0
0.0 19.3 0.0
0.0 19.2 0.0
0.0 19.1 0.0
0.0 19.0 0.0
0.0 18.9 0.0
0.0 18.8 0.0
0.0 18.7 0.0
0.0 18.6 0.0
0.0 18.5 0.0
0.0 18.4 0.0
0.0 18.3 0.0
0.0 18.2 0.0
0.0 18.1 0.0
0.0 18.0 0.0
0.0 17.9 0.0
0.0 17.8 0.0
0.0 17.7 0.0
0.0 17.6 0.0
0.0 17.5 0.0
0.0 17.4 0.0
0.0 17.3 0.0
0.0 17.2 0.0
0.0 17.09999999999999 0.0
0.0 17.0 0.0
0.0 16.9 0.0
0.0 16.8 0.0
0.0 16.7 0.0
0.0 16.59999999999999 0.0
0.0 16.49999999999999 0.0
0.0 16.4 0.0
0.0 16.29999999999999 0.0
0.0 16.2 0.0
0.0 16.09999999999999 0.0
0.0 15.99999999999999 0.0
0.0 15.89999999999999 0.0
0.0 15.79999999999999 0.0
0.0 15.69999999999999 0.0
0.0 15.59999999999999 0.0
0.0 15.49999999999999 0.0
0.0 15.39999999999999 0.0
0.0 15.29999999999999 0.0
0.0 15.19999999999999 0.0
0.0 15.09999999999999 0.0
0.0 14.99999999999999 0.0
0.0 14.89999999999999 0.0
0.0 14.79999999999999 0.0
0.0 14.69999999999999 0.0
0.0 14.59999999999999 0.0
0.0 14.49999999999999 0.0
0.0 14.39999999999999 0.0
0.0 14.29999999999999 0.0
0.0 14.19999999999999 0.0
0.0 14.09999999999999 0.0
0.0 13.99999999999999 0.0
0.0 13.89999999999999 0.0
0.0 13.79999999999999 0.0
0.0 13.69999999999999 0.0
0.0 13.59999999999999 0.0
0.0 13.49999999999999 0.0
0.0 13.39999999999999 0.0
0.0 13.29999999999999 0.0
0.0 13.19999999999999 0.0
0.0 13.09999999999999 0.0
0.0 12.99999999999999 0.0
0.0 12.89999999999999 0.0
0.0 12.79999999999999 0.0
0.0 12.69999999999999 0.0
0.0 12.59999999999999 0.0
0.0 12.49999999999999 0.0
0.0 12.39999999999999 0.0
0.0 12.29999999999999 0.0
0.0 12.19999999999999 0.0
0.0 12.09999999999999 0.0
0.0 11.99999999999999 0.0
0.0 11.89999999999999 0.0
0.0 11.79999999999999 0.0
0.0 11.69999999999999 0.0
0.0 11.59999999999999 0.0
0.0 11.49999999999999 0.0
0.0 11.39999999999999 0.0
0.0 11.29999999999999 0.0
0.0 11.19999999999999 0.0
0.0 11.09999999999999 0.0
0.0 10.99999999999999 0.0
0.0 10.89999999999999 0.0
0.0 10.79999999999999 0.0
0.0 10.69999999999999 0.0
0.0 10.59999999999999 0.0
0.0 10.49999999999999 0.0
0.0 10.39999999999999 0.0
0.0 10.29999999999999 0.0
0.0 10.19999999999999 0.0
0.0 10.09999999999999 0.0
0.0 9.999999999999993 0.0
0.0 9.899999999999993 0.0
0.0 9.799999999999994 0.0
0.0 9.699999999999992 0.0
0.0 9.599999999999993 0.0
0.0 9.499999999999993 0.0
0.0 9.399999999999993 0.0
0.0 9.299999999999995 0.0
0.0 9.199999999999996 0.0
0.0 9.099999999999994 0.0
0.0 8.999999999999995 0.0
0.0 8.899999999999995 0.0
0.0 8.799999999999994 0.0
0.0 8.699999999999994 0.0
0.0 8.599999999999994 0.0
0.0 8.499999999999995 0.0
0.0 8.399999999999995 0.0
0.0 8.299999999999994 0.0
0.0 8.199999999999994 0.0
0.0 8.099999999999994 0.0
0.0 7.999999999999993 0.0
0.0 7.899999999999995 0.0
0.0 7.799999999999995 0.0
0.0 7.699999999999996 0.0
0.0 7.599999999999996 0.0
0.0 7.499999999999996 0.0
0.0 7.399999999999995 0.0
0.0 7.299999999999995 0.0
0.0 7.199999999999996 0.0
0.0 7.099999999999994 0.0
0.0 6.999999999999995 0.0
0.0 6.899999999999995 0.0
0.0 6.799999999999995 0.0
0.0 6.699999999999996 0.0
0.0 6.599999999999994 0.0
0.0 6.499999999999995 0.0
0.0 6.399999999999997 0.0
0.0 6.299999999999997 0.0
0.0 6.199999999999996 0.0
0.0 6.099999999999996 0.0
0.0 5.999999999999996 0.0
0.0 5.899999999999997 0.0
0.0 5.799999999999997 0.0
0.0 5.699999999999996 0.0
0.0 5.599999999999996 0.0
0.0 5.499999999999996 0.0
0.0 5.399999999999995 0.0
0.0 5.299999999999995 0.0
0.0 5.199999999999996 0.0
0.0 5.099999999999996 0.0
0.0 4.999999999999998 0.0
0.0 4.899999999999999 0.0
0.0 4.799999999999997 0.0
0.0 4.699999999999998 0.0
0.0 4.599999999999998 0.0
0.0 4.499999999999996 0.0
0.0 4.399999999999997 0.0
0.0 4.299999999999997 0.0
0.0 4.199999999999998 0.0
0.0 4.099999999999998 0.0
0.0 3.999999999999996 0.0
0.0 3.899999999999999 0.0
0.0 3.799999999999997 0.0
0.0 3.699999999999996 0.0
0.0 3.599999999999998 0.0
0.0 3.5 0.0
0.0 3.399999999999999 0.0
0.0 3.299999999999997 0.0
0.0 3.199999999999999 0.0
0.0 3.099999999999998 0.0
0.0 3.0 0.0
0.0 2.899999999999999 0.0
0.0 2.799999999999997 0.0
0.0 2.699999999999999 0.0
0.0 2.599999999999998 0.0
0.0 2.499999999999996 0.0
0.0 2.399999999999999 0.0
0.0 2.299999999999997 0.0
0.0 2.199999999999999 0.0
0.0 2.100000000000001 0.0
0.0 2.0 0.0
0.0 1.899999999999999 0.0
0.0 1.800000000000001 0.0
0.0 1.699999999999999 0.0
0.0 1.599999999999998 0.0
0.0 1.5 0.0
0.0 1.399999999999999 0.0
0.0 1.299999999999997 0.0
0.0 1.199999999999999 0.0
0.0 1.099999999999998 0.0
0.0 1.0 0.0
0.0 0.8999999999999986 0.0
0.0 0.8000000000000007 0.0
0.0 0.6999999999999993 0.0
0.0 0.6000000000000014 0.0
0.0 0.5 0.0
0.0 0.3999999999999986 0.0
0.0 0.3000000000000007 0.0
0.0 0.1999999999999993 0.0
[...]
POINT_DATA 804
VECTORS displacement double
0.0 0.0 0.0
0.0 0.0 0.0
0.0 0.001783750751261293 0.0
0.0 0.001783750751261263 0.0
0.0 0.0 0.0
0.0 0.0 0.0
0.0 0.001783750751261277 0.0
0.0 0.0017837507512612823 0.0
0.0 6.565710024811858e-12 0.0
0.0 3.040176236117295e-11 0.0
0.0 3.584183733474005e-11 0.0
0.0 3.731467110753669e-11 0.0
0.0 6.753539379455513e-11 0.0
0.0 7.950028437149735e-11 0.0
0.0 6.621389876868405e-11 0.0
0.0 9.463974252292388e-11 0.0
0.0 1.291944749532663e-10 0.0
0.0 1.0625446452621528e-10 0.0
0.0 1.090177167683123e-10 0.0
0.0 1.6962945397081275e-10 0.0
0.0 1.6715387460716007e-10 0.0
0.0 1.2621158805218042e-10 0.0
0.0 1.8166755154856392e-10 0.0
0.0 2.3695477251661905e-10 0.0
0.0 1.7615222981457856e-10 0.0
0.0 1.682182396753023e-10 0.0
0.0 2.7547712643591335e-10 0.0
0.0 2.715391950823191e-10 0.0
0.0 1.7653032439678672e-10 0.0
0.0 2.4761937245748035e-10 0.0
0.0 3.641815113471613e-10 0.0
0.0 2.702968918213687e-10 0.0
0.0 1.9332249633869552e-10 0.0
0.0 3.5706881123666496e-10 0.0
0.0 4.298786523682851e-10 0.0
0.0 2.4563196964606084e-10 0.0
0.0 2.3483167528483936e-10 0.0
0.0 4.857440288723086e-10 0.0
0.0 4.722590222226307e-10 0.0
0.0 2.0165749552153522e-10 0.0
0.0 2.976546137863845e-10 0.0
0.0 6.380753051865078e-10 0.0
0.0 4.942478027408622e-10 0.0
0.0 1.2665290415846384e-10 0.0
0.0 3.807189162169804e-10 0.0
0.0 8.30881639551772e-10 0.0
0.0 4.97757692043642e-10 0.0
0.0 -1.0321165024255176e-12 0.0
0.0 4.752882837096074e-10 0.0
0.0 1.0939788676548662e-09 0.0
0.0 5.058446263313324e-10 0.0
0.0 -2.2557508635196768e-10 0.0
0.0 5.358368028482123e-10 0.0
0.0 1.4917914651601344e-09 0.0
0.0 5.971373477218e-10 0.0
0.0 -6.326959180247681e-10 0.0
0.0 4.32772780596548e-10 0.0
0.0 2.122497425915194e-09 0.0
0.0 9.829613327807988e-10 0.0
0.0 -1.3074179441787576e-09 0.0
0.0 -1.7365009667962133e-10 0.0
0.0 3.002919129005963e-09 0.0
0.0 2.1891714834543527e-09 0.0
0.0 -2.090146459424796e-09 0.0
0.0 -2.0429463339224473e-09 0.0
0.0 3.5984466962937977e-09 0.0
0.0 5.193435153986711e-09 0.0
0.0 -1.7404505116839157e-09 0.0
0.0 -6.1797750543627276e-09 0.0
0.0 1.488615753629064e-09 0.0
0.0 1.0450891640756051e-08 0.0
0.0 3.850901231993989e-09 0.0
0.0 -1.1203063152992914e-08 0.0
0.0 -9.255604761323235e-09 0.0
0.0 1.2400755834668833e-08 0.0
0.0 2.1173369038376855e-08 0.0
0.0 -4.017208470825058e-09 0.0
0.0 -3.112843609685688e-08 0.0
0.0 -1.2435478970323475e-08 0.0
0.0 3.8340606249180026e-08 0.0
0.0 4.655820311973015e-08 0.0
0.0 -2.0797463760565382e-08 0.0
0.0 -8.396634356608207e-08 0.0
0.0 -3.532419516581346e-08 0.0
0.0 9.92364438761836e-08 0.0
0.0 1.4443581678273788e-07 0.0
0.0 -1.8107266347180637e-08 0.0
0.0 -2.443404123155329e-07 0.0
0.0 -2.2035187813921706e-07 0.0
0.0 1.6172681175535077e-07 0.0
0.0 5.478267945452891e-07 0.0
0.0 3.764871583251764e-07 0.0
0.0 -4.713557837989169e-07 0.0
0.0 -1.2693140146001289e-06 0.0
0.0 -8.835932165017721e-07 0.0
0.0 1.07078065509451e-06 0.0
0.0 3.293504512612951e-06 0.0
0.0 3.173184268076082e-06 0.0
0.0 -1.2106371863566177e-06 0.0
0.0 -8.345669928542966e-06 0.0
0.0 -1.1453142856436674e-05 0.0
0.0 1.0570254151403023e-06 0.0
0.0 4.262085258680902e-05 0.0
0.0 0.00012415622247048447 0.0
0.0 0.0002501348240770847 0.0
0.0 0.00041668740560466916 0.0
0.0 0.000612368975842179 0.0
0.0 0.0008210847112685309 0.0
0.0 0.001025943669536607 0.0
0.0 0.001212707249724282 0.0
0.0 0.0013719253115259988 0.0
0.0 0.00149949598392062 0.0
0.0 0.0015959360559502324 0.0
0.0 0.0016649337651687935 0.0
0.0 0.001711763985193367 0.0
0.0 0.0017419744314849388 0.0
0.0 0.0017605257253227669 0.0
0.0 0.0017713818186450127 0.0
0.0 0.0017774410808342588 0.0
0.0 0.0017806685160033067 0.0
0.0 0.0017823095529318188 0.0
0.0 0.0017831061195164863 0.0
0.0 0.0017834751591900024 0.0
0.0 0.0017836382581269484 0.0
0.0 0.0017837069647280521 0.0
0.0 0.0017837345190656144 0.0
0.0 0.0017837450218651 0.0
0.0 0.0017837488185329037 0.0
0.0 0.0017837501162696948 0.0
0.0 0.0017837505343272937 0.0
0.0 0.0017837506609612837 0.0
0.0 0.0017837506969987662 0.0
0.0 0.0017837507070550109 0.0
0.0 0.0017837507102257345 0.0
0.0 0.0017837507116344861 0.0
0.0 0.0017837507128179218 0.0
0.0 0.0017837507138796843 0.0
0.0 0.0017837507148722347 0.0
0.0 0.0017837507159708488 0.0
0.0 0.0017837507169447832 0.0
0.0 0.0017837507179373402 0.0
0.0 0.0017837507189763094 0.0
0.0 0.0017837507198867509 0.0
0.0 0.0017837507208771038 0.0
0.0 0.001783750721832355 0.0
0.0 0.0017837507227111866 0.0
0.0 0.001783750723676889 0.0
0.0 0.0017837507245480851 0.0
0.0 0.0017837507254179384 0.0
0.0 0.0017837507263271555 0.0
0.0 0.0017837507271380615 0.0
0.0 0.0017837507279945095 0.0
0.0 0.0017837507288330087 0.0
0.0 0.0017837507296052742 0.0
0.0 0.0017837507304334507 0.0
0.0 0.0017837507312011118 0.0
0.0 0.0017837507319477656 0.0
0.0 0.0017837507327319309 0.0
0.0 0.001783750733435709 0.0
0.0 0.0017837507341637835 0.0
0.0 0.0017837507348872864 0.0
0.0 0.001783750735542475 0.0
0.0 0.0017837507362486525 0.0
0.0 0.0017837507368991278 0.0
0.0 0.0017837507375278445 0.0
0.0 0.0017837507381928163 0.0
0.0 0.001783750738774914 0.0
0.0 0.001783750739391645 0.0
0.0 0.001783750739987398 0.0
0.0 0.0017837507405294628 0.0
0.0 0.0017837507411193048 0.0
0.0 0.001783750741640059 0.0
0.0 0.001783750742165425 0.0
0.0 0.001783750742699252 0.0
0.0 0.0017837507431654011 0.0
0.0 0.0017837507436726085 0.0
0.0 0.0017837507441320756 0.0
0.0 0.0017837507445734352 0.0
0.0 0.0017837507450345095 0.0
0.0 0.0017837507454339472 0.0
0.0 0.0017837507458546558 0.0
0.0 0.0017837507462508742 0.0
0.0 0.0017837507466134273 0.0
0.0 0.0017837507469972223 0.0
0.0 0.0017837507473306778 0.0
0.0 0.0017837507476687804 0.0
0.0 0.0017837507479948982 0.0
0.0 0.0017837507482855812 0.0
0.0 0.0017837507485877707 0.0
0.0 0.001783750748855962 0.0
0.0 0.0017837507491134188 0.0
0.0 0.0017837507493668934 0.0
0.0 0.001783750749586556 0.0
0.0 0.0017837507498090332 0.0
0.0 0.0017837507500076356 0.0
0.0 0.001783750750189685 0.0
0.0 0.0017837507503662001 0.0
0.0 0.0017837507505170332 0.0
0.0 0.0017837507506598157 0.0
0.0 0.0017837507507876115 0.0
0.0 0.0017837507508951895 0.0
0.0 0.0017837507509953043 0.0
0.0 0.0017837507510748165 0.0
0.0 0.0017837507511417688 0.0
0.0 0.0017837507511946312 0.0
0.0 0.0017837507512308659 0.0
0.0 0.0017837507512531664 0.0
0.0 0.0017837507512531677 0.0
0.0 0.00178375075123086 0.0
0.0 0.0017837507511946212 0.0
0.0 0.0017837507511417857 0.0
0.0 0.0017837507510748067 0.0
0.0 0.0017837507509953156 0.0
0.0 0.001783750750895192 0.0
0.0 0.0017837507507876013 0.0
0.0 0.0017837507506598186 0.0
0.0 0.00178375075051705 0.0
0.0 0.0017837507503661956 0.0
0.0 0.0017837507501896625 0.0
0.0 0.001783750750007623 0.0
0.0 0.0017837507498090362 0.0
0.0 0.0017837507495865475 0.0
0.0 0.001783750749366891 0.0
0.0 0.0017837507491134073 0.0
0.0 0.0017837507488559607 0.0
0.0 0.0017837507485877764 0.0
0.0 0.0017837507482855812 0.0
0.0 0.0017837507479949082 0.0
0.0 0.0017837507476687806 0.0
0.0 0.0017837507473306886 0.0
0.0 0.0017837507469972264 0.0
0.0 0.001783750746613436 0.0
0.0 0.00178375074625087 0.0
0.0 0.0017837507458546475 0.0
0.0 0.001783750745433942 0.0
0.0 0.00178375074503451 0.0
0.0 0.001783750744573434 0.0
0.0 0.0017837507441320795 0.0
0.0 0.0017837507436726102 0.0
0.0 0.0017837507431653968 0.0
0.0 0.0017837507426992577 0.0
0.0 0.001783750742165415 0.0
0.0 0.001783750741640041 0.0
0.0 0.001783750741119314 0.0
0.0 0.0017837507405294602 0.0
0.0 0.001783750739987394 0.0
0.0 0.0017837507393916544 0.0
0.0 0.0017837507387749117 0.0
0.0 0.0017837507381928104 0.0
0.0 0.001783750737527831 0.0
0.0 0.0017837507368991302 0.0
0.0 0.001783750736248662 0.0
0.0 0.0017837507355424743 0.0
0.0 0.0017837507348872864 0.0
0.0 0.0017837507341637773 0.0
0.0 0.0017837507334357236 0.0
0.0 0.001783750732731937 0.0
0.0 0.0017837507319477665 0.0
0.0 0.0017837507312011083 0.0
0.0 0.001783750730433448 0.0
0.0 0.001783750729605283 0.0
0.0 0.0017837507288330171 0.0
0.0 0.0017837507279945136 0.0
0.0 0.0017837507271380524 0.0
0.0 0.0017837507263271579 0.0
0.0 0.0017837507254179327 0.0
0.0 0.0017837507245480944 0.0
0.0 0.0017837507236768998 0.0
0.0 0.00178375072271117 0.0
0.0 0.0017837507218323558 0.0
0.0 0.0017837507208771069 0.0
0.0 0.0017837507198867294 0.0
0.0 0.0017837507189763062 0.0
0.0 0.0017837507179373274 0.0
0.0 0.0017837507169447878 0.0
0.0 0.0017837507159708533 0.0
0.0 0.0017837507148722501 0.0
0.0 0.00178375071387968 0.0
0.0 0.0017837507128179177 0.0
0.0 0.0017837507116344894 0.0
0.0 0.0017837507102257265 0.0
0.0 0.0017837507070550002 0.0
0.0 0.0017837506969987863 0.0
0.0 0.0017837506609612915 0.0
0.0 0.0017837505343272805 0.0
0.0 0.0017837501162697022 0.0
0.0 0.001783748818532907 0.0
0.0 0.0017837450218651017 0.0
0.0 0.0017837345190656203 0.0
0.0 0.0017837069647280764 0.0
0.0 0.0017836382581269776 0.0
0.0 0.0017834751591900332 0.0
0.0 0.0017831061195165549 0.0
0.0 0.0017823095529319742 0.0
0.0 0.0017806685160036053 0.0
0.0 0.0017774410808348508 0.0
0.0 0.0017713818186461381 0.0
0.0 0.0017605257253247284 0.0
0.0 0.0017419744314882218 0.0
0.0 0.0017117639851986818 0.0
0.0 0.0016649337651769315 0.0
0.0 0.001595936055962051 0.0
0.0 0.0014994959839368927 0.0
0.0 0.0013719253115471433 0.0
0.0 0.0012127072497501933 0.0
0.0 0.001025943669566371 0.0
0.0 0.0008210847113003543 0.0
0.0 0.0006123689758736792 0.0
0.0 0.0004166874056331298 0.0
0.0 0.00025013482410019125 0.0
0.0 0.000124156222486893 0.0
0.0 4.262085259642398e-05 0.0
0.0 1.0570254191534601e-06 0.0
0.0 -1.1453142856015307e-05 0.0
0.0 -8.345669929646714e-06 0.0
0.0 -1.2106371874217807e-06 0.0
0.0 3.1731842677181393e-06 0.0
0.0 3.29350451287203e-06 0.0
0.0 1.0707806555096587e-06 0.0
0.0 -8.835932162829977e-07 0.0
0.0 -1.2693140146539368e-06 0.0
0.0 -4.713557839793716e-07 0.0
0.0 3.7648715822435327e-07 0.0
0.0 5.478267945654191e-07 0.0
0.0 1.6172681183591946e-07 0.0
0.0 -2.203518781057291e-07 0.0
0.0 -2.443404123421867e-07 0.0
0.0 -1.81072663840041e-08 0.0
0.0 1.4443581677857278e-07 0.0
0.0 9.923644389694334e-08 0.0
0.0 -3.532419514304724e-08 0.0
0.0 -8.396634357136128e-08 0.0
0.0 -2.079746377520221e-08 0.0
0.0 4.6558203117660924e-08 0.0
0.0 3.834060625251246e-08 0.0
0.0 -1.2435478959666715e-08 0.0
0.0 -3.112843610208803e-08 0.0
0.0 -4.017208475306186e-09 0.0
0.0 2.1173369036815005e-08 0.0
0.0 1.2400755839362911e-08 0.0
0.0 -9.255604755149428e-09 0.0
0.0 -1.1203063153792493e-08 0.0
0.0 3.8509012280318796e-09 0.0
0.0 1.0450891643164361e-08 0.0
0.0 1.4886157538954618e-09 0.0
0.0 -6.179775060119945e-09 0.0
0.0 -1.7404505151921673e-09 0.0
0.0 5.193435158532075e-09 0.0
0.0 3.5984466957412407e-09 0.0
0.0 -2.042946337953112e-09 0.0
0.0 -2.090146459791249e-09 0.0
0.0 2.1891714817272265e-09 0.0
0.0 3.002919132894877e-09 0.0
0.0 -1.7365009511825092e-10 0.0
0.0 -1.3074179421210563e-09 0.0
0.0 9.829613334930173e-10 0.0
0.0 2.1224974290586887e-09 0.0
0.0 4.3277278048114105e-10 0.0
0.0 -6.326959184797127e-10 0.0
0.0 5.971373458605537e-10 0.0
0.0 1.4917914612406114e-09 0.0
0.0 5.358368039497349e-10 0.0
0.0 -2.2557508440672304e-10 0.0
0.0 5.058446244727615e-10 0.0
0.0 1.0939788668364216e-09 0.0
0.0 4.752882836730977e-10 0.0
0.0 -1.0321180606841699e-12 0.0
0.0 4.977576907542996e-10 0.0
0.0 8.308816406861927e-10 0.0
0.0 3.8071891595641717e-10 0.0
0.0 1.266529035652236e-10 0.0
0.0 4.942478020553923e-10 0.0
0.0 6.380753048515831e-10 0.0
0.0 2.9765461211460355e-10 0.0
0.0 2.0165749369490445e-10 0.0
0.0 4.722590217165779e-10 0.0
0.0 4.857440293545065e-10 0.0
0.0 2.348316758126028e-10 0.0
0.0 2.4563196945300567e-10 0.0
0.0 4.2987865316819713e-10 0.0
0.0 3.5706881119865e-10 0.0
0.0 1.9332249762891222e-10 0.0
0.0 2.702968905262732e-10 0.0
0.0 3.6418151089947897e-10 0.0
0.0 2.476193729951281e-10 0.0
0.0 1.765303248435253e-10 0.0
0.0 2.7153919365867205e-10 0.0
0.0 2.7547712585465813e-10 0.0
0.0 1.6821823903528637e-10 0.0
0.0 1.7615222826862685e-10 0.0
0.0 2.369547716227434e-10 0.0
0.0 1.8166755123219585e-10 0.0
0.0 1.2621158786516567e-10 0.0
0.0 1.6715387414542521e-10 0.0
0.0 1.6962945509023387e-10 0.0
0.0 1.0901771760055818e-10 0.0
0.0 1.0625446524178768e-10 0.0
0.0 1.2919447474673604e-10 0.0
0.0 9.463974181623401e-11 0.0
0.0 6.621389878837166e-11 0.0
0.0 7.950028485788181e-11 0.0
0.0 6.753539402346542e-11 0.0
0.0 3.73146710145628e-11 0.0
0.0 3.584183754252171e-11 0.0
0.0 3.040176323219335e-11 0.0
0.0 6.5657094793372694e-12 0.0
0.0 6.565711054842423e-12 0.0
0.0 3.040176276996062e-11 0.0
0.0 3.584183705399301e-11 0.0
0.0 3.731467092693934e-11 0.0
0.0 6.753539385787708e-11 0.0
0.0 7.950028433550029e-11 0.0
0.0 6.621389867117233e-11 0.0
0.0 9.463974167632291e-11 0.0
0.0 1.2919447419214607e-10 0.0
0.0 1.0625446520527865e-10 0.0
0.0 1.090177181608265e-10 0.0
0.0 1.696294559947332e-10 0.0
0.0 1.6715387556246698e-10 0.0
0.0 1.2621158900459124e-10 0.0
0.0 1.8166755231253713e-10 0.0
0.0 2.369547727024757e-10 0.0
0.0 1.7615222928656927e-10 0.0
0.0 1.682182397964176e-10 0.0
0.0 2.754771269150402e-10 0.0
0.0 2.7153919488146166e-10 0.0
0.0 1.7653032493476242e-10 0.0
0.0 2.47619372511541e-10 0.0
0.0 3.64181512241799e-10 0.0
0.0 2.7029689114653694e-10 0.0
0.0 1.9332249644432307e-10 0.0
0.0 3.570688108432869e-10 0.0
0.0 4.298786530915591e-10 0.0
0.0 2.456319690905513e-10 0.0
0.0 2.3483167517460694e-10 0.0
0.0 4.857440296904783e-10 0.0
0.0 4.722590220230508e-10 0.0
0.0 2.0165749410099523e-10 0.0
0.0 2.976546117788111e-10 0.0
0.0 6.380753032103224e-10 0.0
0.0 4.942478010411946e-10 0.0
0.0 1.266529031906923e-10 0.0
0.0 3.8071891668141544e-10 0.0
0.0 8.308816400642366e-10 0.0
0.0 4.977576919663048e-10 0.0
0.0 -1.0321181247696968e-12 0.0
0.0 4.752882827142728e-10 0.0
0.0 1.093978865895813e-09 0.0
0.0 5.058446239240664e-10 0.0
0.0 -2.2557508391439292e-10 0.0
0.0 5.358368054289391e-10 0.0
0.0 1.491791464387978e-09 0.0
0.0 5.971373475819368e-10 0.0
0.0 -6.326959165048755e-10 0.0
0.0 4.3277278093563844e-10 0.0
0.0 2.122497425402108e-09 0.0
0.0 9.82961330791522e-10 0.0
0.0 -1.3074179433346975e-09 0.0
0.0 -1.7365009576956283e-10 0.0
0.0 3.002919130568737e-09 0.0
0.0 2.1891714829937608e-09 0.0
0.0 -2.0901464563713545e-09 0.0
0.0 -2.0429463345674865e-09 0.0
0.0 3.598446697402534e-09 0.0
0.0 5.193435157577867e-09 0.0
0.0 -1.740450513402407e-09 0.0
0.0 -6.179775057290114e-09 0.0
0.0 1.4886157514961169e-09 0.0
0.0 1.045089163915191e-08 0.0
0.0 3.850901231039977e-09 0.0
0.0 -1.1203063152789515e-08 0.0
0.0 -9.255604759701357e-09 0.0
0.0 1.24007558385868e-08 0.0
0.0 2.1173369040645335e-08 0.0
0.0 -4.0172084686536805e-09 0.0
0.0 -3.1128436096060636e-08 0.0
0.0 -1.2435478965291587e-08 0.0
0.0 3.834060624727159e-08 0.0
0.0 4.655820312168817e-08 0.0
0.0 -2.0797463759352983e-08 0.0
0.0 -8.396634356481409e-08 0.0
0.0 -3.5324195163544643e-08 0.0
0.0 9.923644387996347e-08 0.0
0.0 1.4443581679295016e-07 0.0
0.0 -1.8107266341022036e-08 0.0
0.0 -2.443404123181674e-07 0.0
0.0 -2.2035187814941584e-07 0.0
0.0 1.6172681175656944e-07 0.0
0.0 5.4782679453806e-07 0.0
0.0 3.7648715832309825e-07 0.0
0.0 -4.7135578380557525e-07 0.0
0.0 -1.2693140145998832e-06 0.0
0.0 -8.835932164961726e-07 0.0
0.0 1.0707806550933354e-06 0.0
0.0 3.293504512615376e-06 0.0
0.0 3.1731842680840384e-06 0.0
0.0 -1.2106371863493595e-06 0.0
0.0 -8.345669928546508e-06 0.0
0.0 -1.1453142856433179e-05 0.0
0.0 1.0570254151391736e-06 0.0
0.0 4.262085258680482e-05 0.0
0.0 0.00012415622247049387 0.0
0.0 0.00025013482407708744 0.0
0.0 0.00041668740560467106 0.0
0.0 0.0006123689758421887 0.0
0.0 0.0008210847112685186 0.0
0.0 0.001025943669536617 0.0
0.0 0.0012127072497242872 0.0
0.0 0.0013719253115259842 0.0
0.0 0.0014994959839206249 0.0
0.0 0.0015959360559502417 0.0
0.0 0.0016649337651688057 0.0
0.0 0.0017117639851933616 0.0
0.0 0.0017419744314849193 0.0
0.0 0.0017605257253227669 0.0
0.0 0.001771381818645028 0.0
0.0 0.0017774410808342588 0.0
0.0 0.0017806685160033009 0.0
0.0 0.0017823095529318198 0.0
0.0 0.0017831061195164772 0.0
0.0 0.0017834751591899944 0.0
0.0 0.0017836382581269477 0.0
0.0 0.001783706964728069 0.0
0.0 0.0017837345190656198 0.0
0.0 0.001783745021865101 0.0
0.0 0.001783748818532914 0.0
0.0 0.001783750116269695 0.0
0.0 0.0017837505343272846 0.0
0.0 0.001783750660961286 0.0
0.0 0.0017837506969987755 0.0
0.0 0.0017837507070549946 0.0
0.0 0.0017837507102257272 0.0
0.0 0.0017837507116344861 0.0
0.0 0.0017837507128179231 0.0
0.0 0.0017837507138796821 0.0
0.0 0.0017837507148722469 0.0
0.0 0.0017837507159708496 0.0
0.0 0.0017837507169447759 0.0
0.0 0.0017837507179373272 0.0
0.0 0.0017837507189763112 0.0
0.0 0.0017837507198867383 0.0
0.0 0.001783750720877117 0.0
0.0 0.0017837507218323647 0.0
0.0 0.0017837507227111667 0.0
0.0 0.001783750723676889 0.0
0.0 0.0017837507245480853 0.0
0.0 0.0017837507254179217 0.0
0.0 0.0017837507263271562 0.0
0.0 0.0017837507271380535 0.0
0.0 0.0017837507279945123 0.0
0.0 0.0017837507288330063 0.0
0.0 0.0017837507296052893 0.0
0.0 0.0017837507304334418 0.0
0.0 0.0017837507312011048 0.0
0.0 0.0017837507319477636 0.0
0.0 0.001783750732731944 0.0
0.0 0.0017837507334357234 0.0
0.0 0.0017837507341637757 0.0
0.0 0.0017837507348872803 0.0
0.0 0.0017837507355424737 0.0
0.0 0.00178375073624865 0.0
0.0 0.0017837507368991283 0.0
0.0 0.001783750737527837 0.0
0.0 0.0017837507381928074 0.0
0.0 0.001783750738774911 0.0
0.0 0.0017837507393916533 0.0
0.0 0.0017837507399873838 0.0
0.0 0.0017837507405294526 0.0
0.0 0.0017837507411193221 0.0
0.0 0.0017837507416400525 0.0
0.0 0.0017837507421654196 0.0
0.0 0.0017837507426992625 0.0
0.0 0.0017837507431654029 0.0
0.0 0.0017837507436726167 0.0
0.0 0.0017837507441320769 0.0
0.0 0.0017837507445734372 0.0
0.0 0.0017837507450345108 0.0
0.0 0.0017837507454339376 0.0
0.0 0.0017837507458546473 0.0
0.0 0.0017837507462508714 0.0
0.0 0.0017837507466134414 0.0
0.0 0.0017837507469972288 0.0
0.0 0.0017837507473306832 0.0
0.0 0.001783750747668781 0.0
0.0 0.001783750747994901 0.0
0.0 0.0017837507482855734 0.0
0.0 0.0017837507485877712 0.0
0.0 0.0017837507488559648 0.0
0.0 0.001783750749113409 0.0
0.0 0.0017837507493668934 0.0
0.0 0.0017837507495865482 0.0
0.0 0.0017837507498090278 0.0
0.0 0.001783750750007617 0.0
0.0 0.00178375075018967 0.0
0.0 0.001783750750366195 0.0
0.0 0.0017837507505170456 0.0
0.0 0.0017837507506598277 0.0
0.0 0.001783750750787611 0.0
0.0 0.0017837507508951962 0.0
0.0 0.0017837507509953204 0.0
0.0 0.001783750751074808 0.0
0.0 0.001783750751141778 0.0
0.0 0.0017837507511946418 0.0
0.0 0.0017837507512308633 0.0
0.0 0.001783750751253174 0.0
0.0 0.0017837507512531593 0.0
0.0 0.001783750751230867 0.0
0.0 0.0017837507511946256 0.0
0.0 0.0017837507511417568 0.0
0.0 0.0017837507510748147 0.0
0.0 0.0017837507509953167 0.0
0.0 0.001783750750895185 0.0
0.0 0.001783750750787601 0.0
0.0 0.0017837507506598199 0.0
0.0 0.0017837507505170395 0.0
0.0 0.0017837507503661882 0.0
0.0 0.0017837507501896788 0.0
0.0 0.0017837507500076313 0.0
0.0 0.0017837507498090377 0.0
0.0 0.001783750749586557 0.0
0.0 0.0017837507493668934 0.0
0.0 0.0017837507491134236 0.0
0.0 0.0017837507488559742 0.0
0.0 0.001783750748587772 0.0
0.0 0.0017837507482855847 0.0
0.0 0.0017837507479948984 0.0
0.0 0.0017837507476687927 0.0
0.0 0.0017837507473306832 0.0
0.0 0.0017837507469972405 0.0
0.0 0.0017837507466134375 0.0
0.0 0.001783750746250879 0.0
0.0 0.0017837507458546636 0.0
0.0 0.0017837507454339643 0.0
0.0 0.0017837507450345236 0.0
0.0 0.0017837507445734426 0.0
0.0 0.0017837507441320804 0.0
0.0 0.0017837507436726078 0.0
0.0 0.0017837507431653994 0.0
0.0 0.0017837507426992345 0.0
0.0 0.0017837507421654165 0.0
0.0 0.001783750741640052 0.0
0.0 0.0017837507411193035 0.0
0.0 0.0017837507405294582 0.0
0.0 0.0017837507399874066 0.0
0.0 0.0017837507393916577 0.0
0.0 0.0017837507387749114 0.0
0.0 0.0017837507381928104 0.0
0.0 0.0017837507375278294 0.0
0.0 0.0017837507368991218 0.0
0.0 0.0017837507362486434 0.0
0.0 0.001783750735542481 0.0
0.0 0.0017837507348872912 0.0
0.0 0.0017837507341637872 0.0
0.0 0.00178375073343571 0.0
0.0 0.0017837507327319244 0.0
0.0 0.0017837507319477702 0.0
0.0 0.0017837507312011174 0.0
0.0 0.0017837507304334405 0.0
0.0 0.0017837507296052716 0.0
0.0 0.0017837507288330063 0.0
0.0 0.0017837507279945132 0.0
0.0 0.001783750727138062 0.0
0.0 0.0017837507263271544 0.0
0.0 0.0017837507254179303 0.0