# vtk DataFile Version 2.0
data_871
ASCII
DATASET UNSTRUCTURED_GRID
POINTS 804 float
0.0 0.0 0.0
0.1 0.0 0.0
0.1 20.0 0.0
0.0 20.0 0.0
0.0 0.0 -0.1
0.1 0.0 -0.1
0.1 20.0 -0.1
0.0 20.0 -0.1
0.1 0.09999999999992462 0.0
0.1 0.1999999999998517 0.0
0.1 0.2999999999997818 0.0
0.1 0.399999999999712 0.0
0.1 0.4999999999996377 0.0
0.1 0.5999999999995541 0.0
0.1 0.6999999999994495 0.0
0.1 0.7999999999993355 0.0
0.1 0.8999999999992101 0.0
0.1 0.999999999999102 0.0
0.1 1.099999999999006 0.0
0.1 1.199999999998936 0.0
0.1 1.299999999998867 0.0
0.1 1.399999999998797 0.0
0.1 1.499999999998727 0.0
0.1 1.599999999998657 0.0
0.1 1.699999999998587 0.0
0.1 1.799999999998517 0.0
0.1 1.899999999998447 0.0
0.1 1.999999999998378 0.0
0.1 2.099999999998308 0.0
0.1 2.199999999998238 0.0
0.1 2.299999999998168 0.0
0.1 2.399999999998067 0.0
0.1 2.499999999997942 0.0
0.1 2.599999999997706 0.0
0.1 2.699999999997444 0.0
0.1 2.799999999997153 0.0
0.1 2.899999999996861 0.0
0.1 2.999999999996569 0.0
0.1 3.099999999996277 0.0
0.1 3.199999999995984 0.0
0.1 3.299999999995693 0.0
0.1 3.399999999995401 0.0
0.1 3.499999999995108 0.0
0.1 3.599999999994816 0.0
0.1 3.699999999994525 0.0
0.1 3.799999999994232 0.0
0.1 3.89999999999394 0.0
0.1 3.999999999993648 0.0
0.1 4.099999999993356 0.0
0.1 4.199999999993064 0.0
0.1 4.299999999992772 0.0
0.1 4.399999999992479 0.0
0.1 4.499999999992188 0.0
0.1 4.599999999991895 0.0
0.1 4.699999999991603 0.0
0.1 4.799999999991311 0.0
0.1 4.899999999991019 0.0
0.1 4.999999999990727 0.0
0.1 5.099999999990436 0.0
0.1 5.199999999990144 0.0
0.1 5.299999999989851 0.0
0.1 5.399999999989559 0.0
0.1 5.499999999989267 0.0
0.1 5.599999999988975 0.0
0.1 5.699999999988683 0.0
0.1 5.799999999988391 0.0
0.1 5.899999999988099 0.0
0.1 5.999999999987806 0.0
0.1 6.099999999987515 0.0
0.1 6.199999999987222 0.0
0.1 6.299999999986929 0.0
0.1 6.399999999986638 0.0
0.1 6.499999999986345 0.0
0.1 6.599999999986054 0.0
0.1 6.699999999985762 0.0
0.1 6.79999999998547 0.0
0.1 6.899999999985177 0.0
0.1 6.999999999984885 0.0
0.1 7.099999999984593 0.0
0.1 7.199999999984302 0.0
0.1 7.299999999984009 0.0
0.1 7.399999999983717 0.0
0.1 7.499999999983426 0.0
0.1 7.599999999983132 0.0
0.1 7.699999999982841 0.0
0.1 7.799999999982549 0.0
0.1 7.899999999982256 0.0
0.1 7.999999999982034 0.0
0.1 8.099999999981964 0.0
0.1 8.199999999982062 0.0
0.1 8.299999999982214 0.0
0.1 8.399999999982366 0.0
0.1 8.499999999982517 0.0
0.1 8.59999999998267 0.0
0.1 8.699999999982822 0.0
0.1 8.799999999982973 0.0
0.1 8.899999999983125 0.0
0.1 8.999999999983277 0.0
0.1 9.09999999998343 0.0
0.1 9.19999999998358 0.0
0.1 9.299999999983733 0.0
0.1 9.399999999983885 0.0
0.1 9.499999999984038 0.0
0.1 9.599999999984188 0.0
0.1 9.69999999998434 0.0
0.1 9.799999999984493 0.0
0.1 9.899999999984646 0.0
0.1 9.999999999984798 0.0
0.1 10.09999999998495 0.0
0.1 10.1999999999851 0.0
0.1 10.29999999998525 0.0
0.1 10.39999999998541 0.0
0.1 10.49999999998556 0.0
0.1 10.59999999998571 0.0
0.1 10.69999999998586 0.0
0.1 10.79999999998601 0.0
0.1 10.89999999998616 0.0
0.1 10.99999999998632 0.0
0.1 11.09999999998647 0.0
0.1 11.19999999998662 0.0
0.1 11.29999999998677 0.0
0.1 11.39999999998693 0.0
0.1 11.49999999998708 0.0
0.1 11.59999999998723 0.0
0.1 11.69999999998738 0.0
0.1 11.79999999998754 0.0
0.1 11.89999999998769 0.0
0.1 11.99999999998784 0.0
0.1 12.09999999998799 0.0
0.1 12.19999999998814 0.0
0.1 12.2999999999883 0.0
0.1 12.39999999998845 0.0
0.1 12.4999999999886 0.0
0.1 12.59999999998875 0.0
0.1 12.6999999999889 0.0
0.1 12.79999999998905 0.0
0.1 12.89999999998921 0.0
0.1 12.99999999998936 0.0
0.1 13.09999999998951 0.0
0.1 13.19999999998966 0.0
0.1 13.29999999998982 0.0
0.1 13.39999999998997 0.0
0.1 13.49999999999012 0.0
0.1 13.59999999999027 0.0
0.1 13.69999999999042 0.0
0.1 13.79999999999057 0.0
0.1 13.89999999999073 0.0
0.1 13.99999999999088 0.0
0.1 14.09999999999103 0.0
0.1 14.19999999999118 0.0
0.1 14.29999999999134 0.0
0.1 14.39999999999149 0.0
0.1 14.49999999999164 0.0
0.1 14.59999999999179 0.0
0.1 14.69999999999194 0.0
0.1 14.7999999999921 0.0
0.1 14.89999999999225 0.0
0.1 14.9999999999924 0.0
0.1 15.09999999999255 0.0
0.1 15.1999999999927 0.0
0.1 15.29999999999285 0.0
0.1 15.39999999999301 0.0
0.1 15.49999999999316 0.0
0.1 15.59999999999331 0.0
0.1 15.69999999999346 0.0
0.1 15.79999999999362 0.0
0.1 15.89999999999377 0.0
0.1 15.99999999999392 0.0
0.1 16.09999999999407 0.0
0.1 16.19999999999422 0.0
0.1 16.29999999999437 0.0
0.1 16.39999999999453 0.0
0.1 16.49999999999468 0.0
0.1 16.59999999999483 0.0
0.1 16.69999999999498 0.0
0.1 16.79999999999514 0.0
0.1 16.89999999999528 0.0
0.1 16.99999999999544 0.0
0.1 17.09999999999559 0.0
0.1 17.19999999999574 0.0
0.1 17.29999999999589 0.0
0.1 17.39999999999605 0.0
0.1 17.4999999999962 0.0
0.1 17.59999999999635 0.0
0.1 17.6999999999965 0.0
0.1 17.79999999999665 0.0
0.1 17.89999999999681 0.0
0.1 17.99999999999696 0.0
0.1 18.09999999999711 0.0
0.1 18.19999999999726 0.0
0.1 18.29999999999742 0.0
0.1 18.39999999999757 0.0
0.1 18.49999999999772 0.0
0.1 18.59999999999787 0.0
0.1 18.69999999999802 0.0
0.1 18.79999999999818 0.0
0.1 18.89999999999833 0.0
0.1 18.99999999999848 0.0
0.1 19.09999999999863 0.0
0.1 19.19999999999878 0.0
0.1 19.29999999999894 0.0
0.1 19.39999999999909 0.0
0.1 19.49999999999924 0.0
0.1 19.59999999999939 0.0
0.1 19.69999999999955 0.0
0.1 19.7999999999997 0.0
0.1 19.89999999999985 0.0
0.0 19.9 0.0
0.0 19.8 0.0
0.0 19.7 0.0
0.0 19.6 0.0
0.0 19.5 0.0
0.0 19.4 0.0
0.0 19.3 0.0
0.0 19.2 0.0
0.0 19.1 0.0
0.0 19.0 0.0
0.0 18.9 0.0
0.0 18.8 0.0
0.0 18.7 0.0
0.0 18.6 0.0
0.0 18.5 0.0
0.0 18.4 0.0
0.0 18.3 0.0
0.0 18.2 0.0
0.0 18.1 0.0
0.0 18.0 0.0
0.0 17.9 0.0
0.0 17.8 0.0
0.0 17.7 0.0
0.0 17.6 0.0
0.0 17.5 0.0
0.0 17.4 0.0
0.0 17.3 0.0
0.0 17.2 0.0
0.0 17.09999999999999 0.0
0.0 17.0 0.0
0.0 16.9 0.0
0.0 16.8 0.0
0.0 16.7 0.0
0.0 16.59999999999999 0.0
0.0 16.49999999999999 0.0
0.0 16.4 0.0
0.0 16.29999999999999 0.0
0.0 16.2 0.0
0.0 16.09999999999999 0.0
0.0 15.99999999999999 0.0
0.0 15.89999999999999 0.0
0.0 15.79999999999999 0.0
0.0 15.69999999999999 0.0
0.0 15.59999999999999 0.0
0.0 15.49999999999999 0.0
0.0 15.39999999999999 0.0
0.0 15.29999999999999 0.0
0.0 15.19999999999999 0.0
0.0 15.09999999999999 0.0
0.0 14.99999999999999 0.0
0.0 14.89999999999999 0.0
0.0 14.79999999999999 0.0
0.0 14.69999999999999 0.0
0.0 14.59999999999999 0.0
0.0 14.49999999999999 0.0
0.0 14.39999999999999 0.0
0.0 14.29999999999999 0.0
0.0 14.19999999999999 0.0
0.0 14.09999999999999 0.0
0.0 13.99999999999999 0.0
0.0 13.89999999999999 0.0
0.0 13.79999999999999 0.0
0.0 13.69999999999999 0.0
0.0 13.59999999999999 0.0
0.0 13.49999999999999 0.0
0.0 13.39999999999999 0.0
0.0 13.29999999999999 0.0
0.0 13.19999999999999 0.0
0.0 13.09999999999999 0.0
0.0 12.99999999999999 0.0
0.0 12.89999999999999 0.0
0.0 12.79999999999999 0.0
0.0 12.69999999999999 0.0
0.0 12.59999999999999 0.0
0.0 12.49999999999999 0.0
0.0 12.39999999999999 0.0
0.0 12.29999999999999 0.0
0.0 12.19999999999999 0.0
0.0 12.09999999999999 0.0
0.0 11.99999999999999 0.0
0.0 11.89999999999999 0.0
0.0 11.79999999999999 0.0
0.0 11.69999999999999 0.0
0.0 11.59999999999999 0.0
0.0 11.49999999999999 0.0
0.0 11.39999999999999 0.0
0.0 11.29999999999999 0.0
0.0 11.19999999999999 0.0
0.0 11.09999999999999 0.0
0.0 10.99999999999999 0.0
0.0 10.89999999999999 0.0
0.0 10.79999999999999 0.0
0.0 10.69999999999999 0.0
0.0 10.59999999999999 0.0
0.0 10.49999999999999 0.0
0.0 10.39999999999999 0.0
0.0 10.29999999999999 0.0
0.0 10.19999999999999 0.0
0.0 10.09999999999999 0.0
0.0 9.999999999999993 0.0
0.0 9.899999999999993 0.0
0.0 9.799999999999994 0.0
0.0 9.699999999999992 0.0
0.0 9.599999999999993 0.0
0.0 9.499999999999993 0.0
0.0 9.399999999999993 0.0
0.0 9.299999999999995 0.0
0.0 9.199999999999996 0.0
0.0 9.099999999999994 0.0
0.0 8.999999999999995 0.0
0.0 8.899999999999995 0.0
0.0 8.799999999999994 0.0
0.0 8.699999999999994 0.0
0.0 8.599999999999994 0.0
0.0 8.499999999999995 0.0
0.0 8.399999999999995 0.0
0.0 8.299999999999994 0.0
0.0 8.199999999999994 0.0
0.0 8.099999999999994 0.0
0.0 7.999999999999993 0.0
0.0 7.899999999999995 0.0
0.0 7.799999999999995 0.0
0.0 7.699999999999996 0.0
0.0 7.599999999999996 0.0
0.0 7.499999999999996 0.0
0.0 7.399999999999995 0.0
0.0 7.299999999999995 0.0
0.0 7.199999999999996 0.0
0.0 7.099999999999994 0.0
0.0 6.999999999999995 0.0
0.0 6.899999999999995 0.0
0.0 6.799999999999995 0.0
0.0 6.699999999999996 0.0
0.0 6.599999999999994 0.0
0.0 6.499999999999995 0.0
0.0 6.399999999999997 0.0
0.0 6.299999999999997 0.0
0.0 6.199999999999996 0.0
0.0 6.099999999999996 0.0
0.0 5.999999999999996 0.0
0.0 5.899999999999997 0.0
0.0 5.799999999999997 0.0
0.0 5.699999999999996 0.0
0.0 5.599999999999996 0.0
0.0 5.499999999999996 0.0
0.0 5.399999999999995 0.0
0.0 5.299999999999995 0.0
0.0 5.199999999999996 0.0
0.0 5.099999999999996 0.0
0.0 4.999999999999998 0.0
0.0 4.899999999999999 0.0
0.0 4.799999999999997 0.0
0.0 4.699999999999998 0.0
0.0 4.599999999999998 0.0
0.0 4.499999999999996 0.0
0.0 4.399999999999997 0.0
0.0 4.299999999999997 0.0
0.0 4.199999999999998 0.0
0.0 4.099999999999998 0.0
0.0 3.999999999999996 0.0
0.0 3.899999999999999 0.0
0.0 3.799999999999997 0.0
0.0 3.699999999999996 0.0
0.0 3.599999999999998 0.0
0.0 3.5 0.0
0.0 3.399999999999999 0.0
0.0 3.299999999999997 0.0
0.0 3.199999999999999 0.0
0.0 3.099999999999998 0.0
0.0 3.0 0.0
0.0 2.899999999999999 0.0
0.0 2.799999999999997 0.0
0.0 2.699999999999999 0.0
0.0 2.599999999999998 0.0
0.0 2.499999999999996 0.0
0.0 2.399999999999999 0.0
0.0 2.299999999999997 0.0
0.0 2.199999999999999 0.0
0.0 2.100000000000001 0.0
0.0 2.0 0.0
0.0 1.899999999999999 0.0
0.0 1.800000000000001 0.0
0.0 1.699999999999999 0.0
0.0 1.599999999999998 0.0
0.0 1.5 0.0
0.0 1.399999999999999 0.0
0.0 1.299999999999997 0.0
0.0 1.199999999999999 0.0
0.0 1.099999999999998 0.0
0.0 1.0 0.0
0.0 0.8999999999999986 0.0
0.0 0.8000000000000007 0.0
0.0 0.6999999999999993 0.0
0.0 0.6000000000000014 0.0
0.0 0.5 0.0
0.0 0.3999999999999986 0.0
0.0 0.3000000000000007 0.0
0.0 0.1999999999999993 0.0
[...]
POINT_DATA 804
VECTORS displacement double
0.0 0.0 0.0
0.0 0.0 0.0
0.0 0.0017841352997186608 0.0
0.0 0.0017841352997186655 0.0
0.0 0.0 0.0
0.0 0.0 0.0
0.0 0.0017841352997186922 0.0
0.0 0.0017841352997186675 0.0
0.0 -2.7478553057571194e-09 0.0
0.0 1.2390481439528608e-09 0.0
0.0 3.4700274346897983e-09 0.0
0.0 -2.2696937104106365e-09 0.0
0.0 -4.825478572349488e-09 0.0
0.0 3.16283881375791e-09 0.0
0.0 7.3637598382532265e-09 0.0
0.0 -3.0088609478944843e-09 0.0
0.0 -1.0656058284098996e-08 0.0
0.0 1.6756110525337598e-09 0.0
0.0 1.5344275445631018e-08 0.0
0.0 2.9676686393079332e-09 0.0
0.0 -1.9633813578723756e-08 0.0
0.0 -1.1557866987931419e-08 0.0
0.0 2.22980530826499e-08 0.0
0.0 2.6769033614591622e-08 0.0
0.0 -1.7095871685613523e-08 0.0
0.0 -4.6453510230324884e-08 0.0
0.0 -2.4255604372864066e-09 0.0
0.0 6.532583101891887e-08 0.0
0.0 4.6838901150539855e-08 0.0
0.0 -6.255240523124959e-08 0.0
0.0 -1.1473251133175657e-07 0.0
0.0 5.46097698996933e-09 0.0
0.0 1.787223454277308e-07 0.0
0.0 1.4491894019986745e-07 0.0
0.0 -1.4668202052673708e-07 0.0
0.0 -3.660356991914205e-07 0.0
0.0 -1.2915734864499162e-07 0.0
0.0 4.585911127484043e-07 0.0
0.0 7.174400239415119e-07 0.0
0.0 6.053481579225629e-08 0.0
0.0 -1.1546091943322006e-06 0.0
0.0 -1.584460580508366e-06 0.0
0.0 -6.351411977964343e-08 0.0
0.0 2.840019557594366e-06 0.0
0.0 4.411591564627375e-06 0.0
0.0 1.5010994160686356e-06 0.0
0.0 -6.204510583843561e-06 0.0
0.0 -1.3278827668956948e-05 0.0
0.0 -8.085703075287728e-06 0.0
0.0 2.444997979760157e-05 0.0
0.0 9.783016502112799e-05 0.0
0.0 0.0002189548863337046 0.0
0.0 0.0003852707266457873 0.0
0.0 0.0005851559292408615 0.0
0.0 0.0008011141546431654 0.0
0.0 0.001014300228237116 0.0
0.0 0.0012086816382269228 0.0
0.0 0.0013736461712539859 0.0
0.0 0.0015046923821511794 0.0
0.0 0.001602555843659291 0.0
0.0 0.001671487404032814 0.0
0.0 0.0017174003983660322 0.0
0.0 0.0017463765202322657 0.0
0.0 0.0017637304601534317 0.0
0.0 0.0017736046811251398 0.0
0.0 0.001778946484531231 0.0
0.0 0.0017816953288221989 0.0
0.0 0.0017830410885642672 0.0
0.0 0.001783667762127552 0.0
0.0 0.0017839451542838976 0.0
0.0 0.001784061802003581 0.0
0.0 0.0017841083411890726 0.0
0.0 0.0017841258890811693 0.0
0.0 0.0017841321436243194 0.0
0.0 0.0017841342618697023 0.0
0.0 0.0017841349144841377 0.0
0.0 0.0017841350968232884 0.0
0.0 0.001784135164363553 0.0
0.0 0.001784135177872288 0.0
0.0 0.0017841351698961467 0.0
0.0 0.0017841351821224092 0.0
0.0 0.0017841351876264828 0.0
0.0 0.0017841351778709207 0.0
0.0 0.0017841351854519525 0.0
0.0 0.0017841351932155333 0.0
0.0 0.0017841351852118388 0.0
0.0 0.001784135189497797 0.0
0.0 0.0017841351981293882 0.0
0.0 0.0017841351921024581 0.0
0.0 0.0017841351941048353 0.0
0.0 0.0017841352026640978 0.0
0.0 0.0017841351984925822 0.0
0.0 0.0017841351990257799 0.0
0.0 0.0017841352070492378 0.0
0.0 0.0017841352043937151 0.0
0.0 0.0017841352040847353 0.0
0.0 0.001784135211396265 0.0
0.0 0.0017841352098595328 0.0
0.0 0.0017841352091661424 0.0
0.0 0.0017841352157363724 0.0
0.0 0.0017841352149615688 0.0
0.0 0.0017841352142001833 0.0
0.0 0.0017841352200479838 0.0
0.0 0.0017841352197937891 0.0
0.0 0.0017841352191085315 0.0
0.0 0.0017841352243391905 0.0
0.0 0.0017841352243945915 0.0
0.0 0.0017841352238629502 0.0
0.0 0.0017841352286075381 0.0
0.0 0.0017841352287683713 0.0
0.0 0.001784135228491684 0.0
0.0 0.001784135232794513 0.0
0.0 0.001784135232967132 0.0
0.0 0.0017841352329810234 0.0
0.0 0.0017841352368777545 0.0
0.0 0.0017841352370210539 0.0
0.0 0.0017841352373170988 0.0
0.0 0.0017841352408531558 0.0
0.0 0.0017841352409385886 0.0
0.0 0.0017841352414952937 0.0
0.0 0.0017841352447280966 0.0
0.0 0.0017841352446971155 0.0
0.0 0.0017841352455560224 0.0
0.0 0.0017841352484580322 0.0
0.0 0.0017841352483250344 0.0
0.0 0.0017841352495001656 0.0
0.0 0.0017841352520151503 0.0
0.0 0.0017841352518630231 0.0
0.0 0.001784135253290536 0.0
0.0 0.0017841352554228117 0.0
0.0 0.0017841352553034154 0.0
0.0 0.0017841352569227386 0.0
0.0 0.0017841352586915786 0.0
0.0 0.001784135258633927 0.0
0.0 0.0017841352604081942 0.0
0.0 0.0017841352618134135 0.0
0.0 0.00178413526185518 0.0
0.0 0.001784135263759918 0.0
0.0 0.0017841352647565037 0.0
0.0 0.0017841352650159695 0.0
0.0 0.001784135266924047 0.0
0.0 0.0017841352675606237 0.0
0.0 0.0017841352681072602 0.0
0.0 0.0017841352698763557 0.0
0.0 0.0017841352702682963 0.0
0.0 0.0017841352710936244 0.0
0.0 0.001784135272624354 0.0
0.0 0.0017841352729036856 0.0
0.0 0.001784135273933143 0.0
0.0 0.0017841352752065642 0.0
0.0 0.001784135275445408 0.0
0.0 0.001784135276630609 0.0
0.0 0.0017841352776252436 0.0
0.0 0.0017841352778916976 0.0
0.0 0.0017841352791898748 0.0
0.0 0.0017841352798648761 0.0
0.0 0.001784135280274743 0.0
0.0 0.001784135281570984 0.0
0.0 0.0017841352819518417 0.0
0.0 0.001784135282601827 0.0
0.0 0.0017841352837305083 0.0
0.0 0.001784135283944012 0.0
0.0 0.0017841352848358518 0.0
0.0 0.001784135285656943 0.0
0.0 0.0017841352859033143 0.0
0.0 0.0017841352868917927 0.0
0.0 0.0017841352874175057 0.0
0.0 0.0017841352878106458 0.0
0.0 0.0017841352887383178 0.0
0.0 0.0017841352890680532 0.0
0.0 0.001784135289622936 0.0
0.0 0.0017841352903795156 0.0
0.0 0.0017841352906450582 0.0
0.0 0.0017841352912836915 0.0
0.0 0.001784135291864472 0.0
0.0 0.0017841352921238803 0.0
0.0 0.0017841352927944686 0.0
0.0 0.0017841352932004184 0.0
0.0 0.0017841352935031988 0.0
0.0 0.0017841352941463126 0.0
0.0 0.0017841352943996696 0.0
0.0 0.0017841352947776201 0.0
0.0 0.00178413529533486 0.0
0.0 0.0017841352954676313 0.0
0.0 0.001784135295955312 0.0
0.0 0.0017841352963291275 0.0
0.0 0.001784135296452297 0.0
0.0 0.0017841352969913927 0.0
0.0 0.001784135297147476 0.0
0.0 0.0017841352973732825 0.0
0.0 0.001784135297838388 0.0
0.0 0.0017841352978368136 0.0
0.0 0.00178413529821599 0.0
0.0 0.0017841352984623673 0.0
0.0 0.0017841352984694044 0.0
0.0 0.001784135298902842 0.0
0.0 0.0017841352989076376 0.0
0.0 0.0017841352990566762 0.0
0.0 0.0017841352993735262 0.0
0.0 0.0017841352992492903 0.0
0.0 0.001784135299552025 0.0
0.0 0.001784135299616922 0.0
0.0 0.0017841352995550412 0.0
0.0 0.0017841352998630186 0.0
0.0 0.0017841352997044501 0.0
0.0 0.0017841352998098966 0.0
0.0 0.0017841352999422564 0.0
0.0 0.00178413529994224 0.0
0.0 0.0017841352998099014 0.0
0.0 0.0017841352997044425 0.0
0.0 0.0017841352998630101 0.0
0.0 0.0017841352995550293 0.0
0.0 0.001784135299616922 0.0
0.0 0.0017841352995520317 0.0
0.0 0.0017841352992492932 0.0
0.0 0.0017841352993735167 0.0
0.0 0.001784135299056679 0.0
0.0 0.0017841352989076405 0.0
0.0 0.001784135298902833 0.0
0.0 0.0017841352984693931 0.0
0.0 0.0017841352984623736 0.0
0.0 0.0017841352982159995 0.0
0.0 0.0017841352978368154 0.0
0.0 0.001784135297838404 0.0
0.0 0.001784135297373288 0.0
0.0 0.0017841352971474777 0.0
0.0 0.0017841352969914038 0.0
0.0 0.0017841352964522953 0.0
0.0 0.001784135296329114 0.0
0.0 0.0017841352959553105 0.0
0.0 0.0017841352954676222 0.0
0.0 0.0017841352953348625 0.0
0.0 0.0017841352947776167 0.0
0.0 0.0017841352943996432 0.0
0.0 0.001784135294146314 0.0
0.0 0.0017841352935031906 0.0
0.0 0.0017841352932004165 0.0
0.0 0.0017841352927944626 0.0
0.0 0.0017841352921238844 0.0
0.0 0.0017841352918644671 0.0
0.0 0.0017841352912836836 0.0
0.0 0.001784135290645069 0.0
0.0 0.0017841352903795115 0.0
0.0 0.0017841352896229411 0.0
0.0 0.0017841352890680625 0.0
0.0 0.001784135288738315 0.0
0.0 0.0017841352878106558 0.0
0.0 0.0017841352874174963 0.0
0.0 0.0017841352868917977 0.0
0.0 0.0017841352859032959 0.0
0.0 0.0017841352856569552 0.0
0.0 0.001784135284835866 0.0
0.0 0.0017841352839440073 0.0
0.0 0.0017841352837305016 0.0
0.0 0.0017841352826018372 0.0
0.0 0.0017841352819518376 0.0
0.0 0.001784135281570971 0.0
0.0 0.0017841352802747538 0.0
0.0 0.001784135279864871 0.0
0.0 0.0017841352791898842 0.0
0.0 0.0017841352778917108 0.0
0.0 0.0017841352776252343 0.0
0.0 0.0017841352766306182 0.0
0.0 0.0017841352754453916 0.0
0.0 0.0017841352752065581 0.0
0.0 0.0017841352739331453 0.0
0.0 0.0017841352729036858 0.0
0.0 0.0017841352726243513 0.0
0.0 0.0017841352710936214 0.0
0.0 0.0017841352702682998 0.0
0.0 0.0017841352698763668 0.0
0.0 0.0017841352681072567 0.0
0.0 0.0017841352675606193 0.0
0.0 0.0017841352669240658 0.0
0.0 0.0017841352650159914 0.0
0.0 0.001784135264756505 0.0
0.0 0.001784135263759911 0.0
0.0 0.0017841352618551928 0.0
0.0 0.0017841352618134323 0.0
0.0 0.0017841352604082085 0.0
0.0 0.0017841352586339145 0.0
0.0 0.0017841352586915908 0.0
0.0 0.001784135256922739 0.0
0.0 0.0017841352553034217 0.0
0.0 0.0017841352554228125 0.0
0.0 0.0017841352532905362 0.0
0.0 0.0017841352518630181 0.0
0.0 0.001784135252015152 0.0
0.0 0.0017841352495001671 0.0
0.0 0.0017841352483250357 0.0
0.0 0.0017841352484580355 0.0
0.0 0.001784135245556025 0.0
0.0 0.0017841352446971168 0.0
0.0 0.00178413524472811 0.0
0.0 0.0017841352414952854 0.0
0.0 0.001784135240938586 0.0
0.0 0.0017841352408531682 0.0
0.0 0.0017841352373170936 0.0
0.0 0.0017841352370210647 0.0
0.0 0.0017841352368777584 0.0
0.0 0.0017841352329810271 0.0
0.0 0.0017841352329671322 0.0
0.0 0.0017841352327945196 0.0
0.0 0.0017841352284916911 0.0
0.0 0.0017841352287683802 0.0
0.0 0.0017841352286075416 0.0
0.0 0.0017841352238629354 0.0
0.0 0.001784135224394591 0.0
0.0 0.0017841352243391957 0.0
0.0 0.0017841352191085291 0.0
0.0 0.0017841352197937941 0.0
0.0 0.0017841352200479814 0.0
0.0 0.001784135214200188 0.0
0.0 0.001784135214961575 0.0
0.0 0.0017841352157363622 0.0
0.0 0.0017841352091661259 0.0
0.0 0.0017841352098595263 0.0
0.0 0.0017841352113962727 0.0
0.0 0.0017841352040847355 0.0
0.0 0.001784135204393702 0.0
0.0 0.0017841352070492396 0.0
0.0 0.001784135199025798 0.0
0.0 0.0017841351984925887 0.0
0.0 0.0017841352026641173 0.0
0.0 0.0017841351941048308 0.0
0.0 0.0017841351921024683 0.0
0.0 0.0017841351981294025 0.0
0.0 0.001784135189497797 0.0
0.0 0.0017841351852118169 0.0
0.0 0.0017841351932155211 0.0
0.0 0.001784135185451957 0.0
0.0 0.00178413517787092 0.0
0.0 0.001784135187626484 0.0
0.0 0.0017841351821224157 0.0
0.0 0.0017841351698961489 0.0
0.0 0.0017841351778722899 0.0
0.0 0.0017841351643635465 0.0
0.0 0.001784135096823297 0.0
0.0 0.0017841349144841197 0.0
0.0 0.0017841342618696962 0.0
0.0 0.0017841321436243096 0.0
0.0 0.0017841258890811621 0.0
0.0 0.001784108341189086 0.0
0.0 0.0017840618020035796 0.0
0.0 0.001783945154283923 0.0
0.0 0.0017836677621275872 0.0
0.0 0.0017830410885643834 0.0
0.0 0.0017816953288224311 0.0
0.0 0.0017789464845316728 0.0
0.0 0.0017736046811259616 0.0
0.0 0.0017637304601548598 0.0
0.0 0.0017463765202346726 0.0
0.0 0.0017174003983698386 0.0
0.0 0.0016714874040385547 0.0
0.0 0.001602555843667423 0.0
0.0 0.0015046923821620951 0.0
0.0 0.0013736461712677483 0.0
0.0 0.0012086816382431888 0.0
0.0 0.0010143002282550248 0.0
0.0 0.0008011141546614345 0.0
0.0 0.0005851559292579377 0.0
0.0 0.00038527072666026815 0.0
0.0 0.00021895488634456991 0.0
0.0 9.783016502810172e-05 0.0
0.0 2.444997980112304e-05 0.0
0.0 -8.085703074222174e-06 0.0
0.0 -1.3278827669179111e-05 0.0
0.0 -6.20451058438278e-06 0.0
0.0 1.5010994157369905e-06 0.0
0.0 4.411591564620407e-06 0.0
0.0 2.8400195577364067e-06 0.0
0.0 -6.351411966257801e-08 0.0
0.0 -1.5844605804910222e-06 0.0
0.0 -1.154609194379974e-06 0.0
0.0 6.053481575192504e-08 0.0
0.0 7.174400239323989e-07 0.0
0.0 4.5859111277040165e-07 0.0
0.0 -1.291573486354715e-07 0.0
0.0 -3.66035699184317e-07 0.0
0.0 -1.4668202053583448e-07 0.0
0.0 1.4491894020880646e-07 0.0
0.0 1.787223454307138e-07 0.0
0.0 5.460976992919996e-09 0.0
0.0 -1.147325113369961e-07 0.0
0.0 -6.255240523674767e-08 0.0
0.0 4.683890114513081e-08 0.0
0.0 6.532583101904765e-08 0.0
0.0 -2.425560433855153e-09 0.0
0.0 -4.645351022965405e-08 0.0
0.0 -1.7095871681121214e-08 0.0
0.0 2.676903361795146e-08 0.0
0.0 2.2298053084206354e-08 0.0
0.0 -1.1557866987831545e-08 0.0
0.0 -1.963381357810081e-08 0.0
0.0 2.9676686374079573e-09 0.0
0.0 1.5344275447824307e-08 0.0
0.0 1.6756110532461052e-09 0.0
0.0 -1.0656058286279173e-08 0.0
0.0 -3.008860946624353e-09 0.0
0.0 7.3637598430697e-09 0.0
0.0 3.1628388169428326e-09 0.0
0.0 -4.8254785730319216e-09 0.0
0.0 -2.2696937109677244e-09 0.0
0.0 3.47002743792773e-09 0.0
0.0 1.2390481427858421e-09 0.0
0.0 -2.7478553017420633e-09 0.0
0.0 -2.747855303231422e-09 0.0
0.0 1.2390481414152816e-09 0.0
0.0 3.470027432494677e-09 0.0
0.0 -2.2696937114971097e-09 0.0
0.0 -4.825478571127496e-09 0.0
0.0 3.162838813416642e-09 0.0
0.0 7.3637598384744245e-09 0.0
0.0 -3.008860949383786e-09 0.0
0.0 -1.0656058285556048e-08 0.0
0.0 1.6756110529166536e-09 0.0
0.0 1.53442754487742e-08 0.0
0.0 2.9676686373163247e-09 0.0
0.0 -1.963381357874727e-08 0.0
0.0 -1.1557866987607823e-08 0.0
0.0 2.2298053083227316e-08 0.0
0.0 2.6769033621083637e-08 0.0
0.0 -1.709587167883041e-08 0.0
0.0 -4.6453510228076574e-08 0.0
0.0 -2.425560434218456e-09 0.0
0.0 6.532583101805567e-08 0.0
0.0 4.683890114979776e-08 0.0
0.0 -6.255240523526516e-08 0.0
0.0 -1.1473251134085749e-07 0.0
0.0 5.460976990169385e-09 0.0
0.0 1.787223454308009e-07 0.0
0.0 1.4491894020770253e-07 0.0
0.0 -1.4668202052974153e-07 0.0
0.0 -3.660356991840183e-07 0.0
0.0 -1.2915734865419336e-07 0.0
0.0 4.5859111274980065e-07 0.0
0.0 7.174400239410472e-07 0.0
0.0 6.053481579338717e-08 0.0
0.0 -1.154609194337029e-06 0.0
0.0 -1.5844605805152912e-06 0.0
0.0 -6.35141197860061e-08 0.0
0.0 2.840019557586215e-06 0.0
0.0 4.411591564630013e-06 0.0
0.0 1.5010994160576358e-06 0.0
0.0 -6.204510583836791e-06 0.0
0.0 -1.3278827668958512e-05 0.0
0.0 -8.08570307529145e-06 0.0
0.0 2.4449979797593444e-05 0.0
0.0 9.783016502112698e-05 0.0
0.0 0.00021895488633370244 0.0
0.0 0.0003852707266457835 0.0
0.0 0.0005851559292408423 0.0
0.0 0.000801114154643172 0.0
0.0 0.0010143002282371222 0.0
0.0 0.0012086816382269215 0.0
0.0 0.0013736461712539941 0.0
0.0 0.0015046923821511883 0.0
0.0 0.0016025558436592907 0.0
0.0 0.0016714874040328273 0.0
0.0 0.0017174003983660316 0.0
0.0 0.001746376520232278 0.0
0.0 0.0017637304601534143 0.0
0.0 0.0017736046811251353 0.0
0.0 0.0017789464845312285 0.0
0.0 0.0017816953288221993 0.0
0.0 0.0017830410885642596 0.0
0.0 0.0017836677621275371 0.0
0.0 0.0017839451542839026 0.0
0.0 0.0017840618020035755 0.0
0.0 0.0017841083411890904 0.0
0.0 0.001784125889081153 0.0
0.0 0.001784132143624319 0.0
0.0 0.0017841342618697006 0.0
0.0 0.0017841349144841231 0.0
0.0 0.0017841350968233075 0.0
0.0 0.001784135164363549 0.0
0.0 0.0017841351778722868 0.0
0.0 0.0017841351698961495 0.0
0.0 0.0017841351821224133 0.0
0.0 0.0017841351876264843 0.0
0.0 0.0017841351778709268 0.0
0.0 0.0017841351854519594 0.0
0.0 0.001784135193215528 0.0
0.0 0.0017841351852118336 0.0
0.0 0.001784135189497792 0.0
0.0 0.001784135198129406 0.0
0.0 0.001784135192102471 0.0
0.0 0.001784135194104843 0.0
0.0 0.0017841352026641117 0.0
0.0 0.0017841351984925874 0.0
0.0 0.0017841351990257955 0.0
0.0 0.001784135207049236 0.0
0.0 0.0017841352043936965 0.0
0.0 0.0017841352040847335 0.0
0.0 0.0017841352113962669 0.0
0.0 0.001784135209859524 0.0
0.0 0.0017841352091661187 0.0
0.0 0.0017841352157363674 0.0
0.0 0.0017841352149615783 0.0
0.0 0.0017841352142001887 0.0
0.0 0.0017841352200479998 0.0
0.0 0.001784135219793795 0.0
0.0 0.001784135219108539 0.0
0.0 0.0017841352243392 0.0
0.0 0.0017841352243945909 0.0
0.0 0.001784135223862927 0.0
0.0 0.0017841352286075505 0.0
0.0 0.0017841352287683754 0.0
0.0 0.001784135228491676 0.0
0.0 0.0017841352327945179 0.0
0.0 0.001784135232967123 0.0
0.0 0.001784135232981024 0.0
0.0 0.0017841352368777558 0.0
0.0 0.001784135237021063 0.0
0.0 0.0017841352373170849 0.0
0.0 0.0017841352408531571 0.0
0.0 0.0017841352409385875 0.0
0.0 0.0017841352414953123 0.0
0.0 0.001784135244728098 0.0
0.0 0.0017841352446971164 0.0
0.0 0.0017841352455560324 0.0
0.0 0.0017841352484580409 0.0
0.0 0.0017841352483250333 0.0
0.0 0.0017841352495001689 0.0
0.0 0.0017841352520151484 0.0
0.0 0.0017841352518630127 0.0
0.0 0.0017841352532905386 0.0
0.0 0.0017841352554228123 0.0
0.0 0.0017841352553034087 0.0
0.0 0.0017841352569227292 0.0
0.0 0.001784135258691598 0.0
0.0 0.0017841352586339158 0.0
0.0 0.0017841352604082092 0.0
0.0 0.001784135261813431 0.0
0.0 0.0017841352618552001 0.0
0.0 0.0017841352637599233 0.0
0.0 0.0017841352647565147 0.0
0.0 0.0017841352650159812 0.0
0.0 0.0017841352669240443 0.0
0.0 0.0017841352675606167 0.0
0.0 0.00178413526810726 0.0
0.0 0.001784135269876363 0.0
0.0 0.001784135270268286 0.0
0.0 0.0017841352710936125 0.0
0.0 0.0017841352726243346 0.0
0.0 0.0017841352729036908 0.0
0.0 0.0017841352739331518 0.0
0.0 0.0017841352752065505 0.0
0.0 0.001784135275445405 0.0
0.0 0.0017841352766306223 0.0
0.0 0.0017841352776252215 0.0
0.0 0.0017841352778916908 0.0
0.0 0.0017841352791898794 0.0
0.0 0.0017841352798648722 0.0
0.0 0.001784135280274753 0.0
0.0 0.0017841352815709613 0.0
0.0 0.0017841352819518296 0.0
0.0 0.0017841352826018257 0.0
0.0 0.0017841352837305099 0.0
0.0 0.0017841352839440144 0.0
0.0 0.0017841352848358655 0.0
0.0 0.0017841352856569506 0.0
0.0 0.001784135285903302 0.0
0.0 0.0017841352868917997 0.0
0.0 0.001784135287417502 0.0
0.0 0.0017841352878106484 0.0
0.0 0.001784135288738311 0.0
0.0 0.0017841352890680695 0.0
0.0 0.001784135289622945 0.0
0.0 0.0017841352903795256 0.0
0.0 0.0017841352906450751 0.0
0.0 0.001784135291283687 0.0
0.0 0.0017841352918644728 0.0
0.0 0.001784135292123883 0.0
0.0 0.0017841352927944628 0.0
0.0 0.001784135293200424 0.0
0.0 0.0017841352935031908 0.0
0.0 0.0017841352941463126 0.0
0.0 0.0017841352943996503 0.0
0.0 0.0017841352947776357 0.0
0.0 0.0017841352953348552 0.0
0.0 0.0017841352954676138 0.0
0.0 0.0017841352959553152 0.0
0.0 0.0017841352963291195 0.0
0.0 0.0017841352964523014 0.0
0.0 0.0017841352969913942 0.0
0.0 0.0017841352971474653 0.0
0.0 0.0017841352973733025 0.0
0.0 0.001784135297838406 0.0
0.0 0.0017841352978368045 0.0
0.0 0.0017841352982159945 0.0
0.0 0.0017841352984623747 0.0
0.0 0.001784135298469402 0.0
0.0 0.0017841352989028366 0.0
0.0 0.0017841352989076352 0.0
0.0 0.00178413529905667 0.0
0.0 0.0017841352993735158 0.0
0.0 0.0017841352992492984 0.0
0.0 0.0017841352995520306 0.0
0.0 0.0017841352996169184 0.0
0.0 0.0017841352995550343 0.0
0.0 0.0017841352998630125 0.0
0.0 0.0017841352997044308 0.0
0.0 0.0017841352998099014 0.0
0.0 0.0017841352999422434 0.0
0.0 0.0017841352999422564 0.0
0.0 0.0017841352998098877 0.0
0.0 0.0017841352997044547 0.0
0.0 0.001784135299863022 0.0
0.0 0.0017841352995550314 0.0
0.0 0.0017841352996169138 0.0
0.0 0.0017841352995520156 0.0
0.0 0.0017841352992492854 0.0
0.0 0.0017841352993735145 0.0
0.0 0.0017841352990566703 0.0
0.0 0.0017841352989076376 0.0
0.0 0.0017841352989028491 0.0
0.0 0.0017841352984694038 0.0
0.0 0.0017841352984623688 0.0
0.0 0.0017841352982159973 0.0
0.0 0.0017841352978368126 0.0
0.0 0.0017841352978383769 0.0
0.0 0.001784135297373277 0.0
0.0 0.0017841352971474868 0.0
0.0 0.001784135296991398 0.0
0.0 0.0017841352964522942 0.0
0.0 0.0017841352963291301 0.0
0.0 0.0017841352959553113 0.0
0.0 0.0017841352954676333 0.0
0.0 0.001784135295334858 0.0
0.0 0.001784135294777615 0.0
0.0 0.0017841352943996653 0.0
0.0 0.0017841352941463141 0.0
0.0 0.0017841352935031966 0.0
0.0 0.0017841352932004163 0.0
0.0 0.0017841352927944634 0.0
0.0 0.001784135292123877 0.0
0.0 0.0017841352918644784 0.0
0.0 0.0017841352912837042 0.0
0.0 0.001784135290645058 0.0
0.0 0.0017841352903795204 0.0
0.0 0.001784135289622937 0.0
0.0 0.0017841352890680645 0.0
0.0 0.0017841352887383174 0.0
0.0 0.0017841352878106413 0.0
0.0 0.0017841352874174961 0.0
0.0 0.0017841352868917869 0.0
0.0 0.001784135285903303 0.0
0.0 0.0017841352856569433 0.0
0.0 0.0017841352848358553 0.0
0.0 0.0017841352839440055 0.0
0.0 0.0017841352837305077 0.0
0.0 0.001784135282601834 0.0
0.0 0.0017841352819518415 0.0
0.0 0.0017841352815709832 0.0
0.0 0.0017841352802747397 0.0
0.0 0.001784135279864865 0.0
0.0 0.0017841352791898792 0.0
0.0 0.0017841352778916993 0.0
0.0 0.0017841352776252425 0.0
0.0 0.0017841352766306217 0.0
0.0 0.0017841352754454037 0.0
0.0 0.001784135275206557 0.0
0.0 0.0017841352739331408 0.0
0.0 0.0017841352729036897 0.0
0.0 0.0017841352726243685 0.0
0.0 0.0017841352710936272 0.0
0.0 0.001784135270268297 0.0