# vtk DataFile Version 2.0
data_180
ASCII
DATASET UNSTRUCTURED_GRID
POINTS 804 float
0.0 0.0 0.0
0.1 0.0 0.0
0.1 20.0 0.0
0.0 20.0 0.0
0.0 0.0 -0.1
0.1 0.0 -0.1
0.1 20.0 -0.1
0.0 20.0 -0.1
0.1 0.09999999999992462 0.0
0.1 0.1999999999998517 0.0
0.1 0.2999999999997818 0.0
0.1 0.399999999999712 0.0
0.1 0.4999999999996377 0.0
0.1 0.5999999999995541 0.0
0.1 0.6999999999994495 0.0
0.1 0.7999999999993355 0.0
0.1 0.8999999999992101 0.0
0.1 0.999999999999102 0.0
0.1 1.099999999999006 0.0
0.1 1.199999999998936 0.0
0.1 1.299999999998867 0.0
0.1 1.399999999998797 0.0
0.1 1.499999999998727 0.0
0.1 1.599999999998657 0.0
0.1 1.699999999998587 0.0
0.1 1.799999999998517 0.0
0.1 1.899999999998447 0.0
0.1 1.999999999998378 0.0
0.1 2.099999999998308 0.0
0.1 2.199999999998238 0.0
0.1 2.299999999998168 0.0
0.1 2.399999999998067 0.0
0.1 2.499999999997942 0.0
0.1 2.599999999997706 0.0
0.1 2.699999999997444 0.0
0.1 2.799999999997153 0.0
0.1 2.899999999996861 0.0
0.1 2.999999999996569 0.0
0.1 3.099999999996277 0.0
0.1 3.199999999995984 0.0
0.1 3.299999999995693 0.0
0.1 3.399999999995401 0.0
0.1 3.499999999995108 0.0
0.1 3.599999999994816 0.0
0.1 3.699999999994525 0.0
0.1 3.799999999994232 0.0
0.1 3.89999999999394 0.0
0.1 3.999999999993648 0.0
0.1 4.099999999993356 0.0
0.1 4.199999999993064 0.0
0.1 4.299999999992772 0.0
0.1 4.399999999992479 0.0
0.1 4.499999999992188 0.0
0.1 4.599999999991895 0.0
0.1 4.699999999991603 0.0
0.1 4.799999999991311 0.0
0.1 4.899999999991019 0.0
0.1 4.999999999990727 0.0
0.1 5.099999999990436 0.0
0.1 5.199999999990144 0.0
0.1 5.299999999989851 0.0
0.1 5.399999999989559 0.0
0.1 5.499999999989267 0.0
0.1 5.599999999988975 0.0
0.1 5.699999999988683 0.0
0.1 5.799999999988391 0.0
0.1 5.899999999988099 0.0
0.1 5.999999999987806 0.0
0.1 6.099999999987515 0.0
0.1 6.199999999987222 0.0
0.1 6.299999999986929 0.0
0.1 6.399999999986638 0.0
0.1 6.499999999986345 0.0
0.1 6.599999999986054 0.0
0.1 6.699999999985762 0.0
0.1 6.79999999998547 0.0
0.1 6.899999999985177 0.0
0.1 6.999999999984885 0.0
0.1 7.099999999984593 0.0
0.1 7.199999999984302 0.0
0.1 7.299999999984009 0.0
0.1 7.399999999983717 0.0
0.1 7.499999999983426 0.0
0.1 7.599999999983132 0.0
0.1 7.699999999982841 0.0
0.1 7.799999999982549 0.0
0.1 7.899999999982256 0.0
0.1 7.999999999982034 0.0
0.1 8.099999999981964 0.0
0.1 8.199999999982062 0.0
0.1 8.299999999982214 0.0
0.1 8.399999999982366 0.0
0.1 8.499999999982517 0.0
0.1 8.59999999998267 0.0
0.1 8.699999999982822 0.0
0.1 8.799999999982973 0.0
0.1 8.899999999983125 0.0
0.1 8.999999999983277 0.0
0.1 9.09999999998343 0.0
0.1 9.19999999998358 0.0
0.1 9.299999999983733 0.0
0.1 9.399999999983885 0.0
0.1 9.499999999984038 0.0
0.1 9.599999999984188 0.0
0.1 9.69999999998434 0.0
0.1 9.799999999984493 0.0
0.1 9.899999999984646 0.0
0.1 9.999999999984798 0.0
0.1 10.09999999998495 0.0
0.1 10.1999999999851 0.0
0.1 10.29999999998525 0.0
0.1 10.39999999998541 0.0
0.1 10.49999999998556 0.0
0.1 10.59999999998571 0.0
0.1 10.69999999998586 0.0
0.1 10.79999999998601 0.0
0.1 10.89999999998616 0.0
0.1 10.99999999998632 0.0
0.1 11.09999999998647 0.0
0.1 11.19999999998662 0.0
0.1 11.29999999998677 0.0
0.1 11.39999999998693 0.0
0.1 11.49999999998708 0.0
0.1 11.59999999998723 0.0
0.1 11.69999999998738 0.0
0.1 11.79999999998754 0.0
0.1 11.89999999998769 0.0
0.1 11.99999999998784 0.0
0.1 12.09999999998799 0.0
0.1 12.19999999998814 0.0
0.1 12.2999999999883 0.0
0.1 12.39999999998845 0.0
0.1 12.4999999999886 0.0
0.1 12.59999999998875 0.0
0.1 12.6999999999889 0.0
0.1 12.79999999998905 0.0
0.1 12.89999999998921 0.0
0.1 12.99999999998936 0.0
0.1 13.09999999998951 0.0
0.1 13.19999999998966 0.0
0.1 13.29999999998982 0.0
0.1 13.39999999998997 0.0
0.1 13.49999999999012 0.0
0.1 13.59999999999027 0.0
0.1 13.69999999999042 0.0
0.1 13.79999999999057 0.0
0.1 13.89999999999073 0.0
0.1 13.99999999999088 0.0
0.1 14.09999999999103 0.0
0.1 14.19999999999118 0.0
0.1 14.29999999999134 0.0
0.1 14.39999999999149 0.0
0.1 14.49999999999164 0.0
0.1 14.59999999999179 0.0
0.1 14.69999999999194 0.0
0.1 14.7999999999921 0.0
0.1 14.89999999999225 0.0
0.1 14.9999999999924 0.0
0.1 15.09999999999255 0.0
0.1 15.1999999999927 0.0
0.1 15.29999999999285 0.0
0.1 15.39999999999301 0.0
0.1 15.49999999999316 0.0
0.1 15.59999999999331 0.0
0.1 15.69999999999346 0.0
0.1 15.79999999999362 0.0
0.1 15.89999999999377 0.0
0.1 15.99999999999392 0.0
0.1 16.09999999999407 0.0
0.1 16.19999999999422 0.0
0.1 16.29999999999437 0.0
0.1 16.39999999999453 0.0
0.1 16.49999999999468 0.0
0.1 16.59999999999483 0.0
0.1 16.69999999999498 0.0
0.1 16.79999999999514 0.0
0.1 16.89999999999528 0.0
0.1 16.99999999999544 0.0
0.1 17.09999999999559 0.0
0.1 17.19999999999574 0.0
0.1 17.29999999999589 0.0
0.1 17.39999999999605 0.0
0.1 17.4999999999962 0.0
0.1 17.59999999999635 0.0
0.1 17.6999999999965 0.0
0.1 17.79999999999665 0.0
0.1 17.89999999999681 0.0
0.1 17.99999999999696 0.0
0.1 18.09999999999711 0.0
0.1 18.19999999999726 0.0
0.1 18.29999999999742 0.0
0.1 18.39999999999757 0.0
0.1 18.49999999999772 0.0
0.1 18.59999999999787 0.0
0.1 18.69999999999802 0.0
0.1 18.79999999999818 0.0
0.1 18.89999999999833 0.0
0.1 18.99999999999848 0.0
0.1 19.09999999999863 0.0
0.1 19.19999999999878 0.0
0.1 19.29999999999894 0.0
0.1 19.39999999999909 0.0
0.1 19.49999999999924 0.0
0.1 19.59999999999939 0.0
0.1 19.69999999999955 0.0
0.1 19.7999999999997 0.0
0.1 19.89999999999985 0.0
0.0 19.9 0.0
0.0 19.8 0.0
0.0 19.7 0.0
0.0 19.6 0.0
0.0 19.5 0.0
0.0 19.4 0.0
0.0 19.3 0.0
0.0 19.2 0.0
0.0 19.1 0.0
0.0 19.0 0.0
0.0 18.9 0.0
0.0 18.8 0.0
0.0 18.7 0.0
0.0 18.6 0.0
0.0 18.5 0.0
0.0 18.4 0.0
0.0 18.3 0.0
0.0 18.2 0.0
0.0 18.1 0.0
0.0 18.0 0.0
0.0 17.9 0.0
0.0 17.8 0.0
0.0 17.7 0.0
0.0 17.6 0.0
0.0 17.5 0.0
0.0 17.4 0.0
0.0 17.3 0.0
0.0 17.2 0.0
0.0 17.09999999999999 0.0
0.0 17.0 0.0
0.0 16.9 0.0
0.0 16.8 0.0
0.0 16.7 0.0
0.0 16.59999999999999 0.0
0.0 16.49999999999999 0.0
0.0 16.4 0.0
0.0 16.29999999999999 0.0
0.0 16.2 0.0
0.0 16.09999999999999 0.0
0.0 15.99999999999999 0.0
0.0 15.89999999999999 0.0
0.0 15.79999999999999 0.0
0.0 15.69999999999999 0.0
0.0 15.59999999999999 0.0
0.0 15.49999999999999 0.0
0.0 15.39999999999999 0.0
0.0 15.29999999999999 0.0
0.0 15.19999999999999 0.0
0.0 15.09999999999999 0.0
0.0 14.99999999999999 0.0
0.0 14.89999999999999 0.0
0.0 14.79999999999999 0.0
0.0 14.69999999999999 0.0
0.0 14.59999999999999 0.0
0.0 14.49999999999999 0.0
0.0 14.39999999999999 0.0
0.0 14.29999999999999 0.0
0.0 14.19999999999999 0.0
0.0 14.09999999999999 0.0
0.0 13.99999999999999 0.0
0.0 13.89999999999999 0.0
0.0 13.79999999999999 0.0
0.0 13.69999999999999 0.0
0.0 13.59999999999999 0.0
0.0 13.49999999999999 0.0
0.0 13.39999999999999 0.0
0.0 13.29999999999999 0.0
0.0 13.19999999999999 0.0
0.0 13.09999999999999 0.0
0.0 12.99999999999999 0.0
0.0 12.89999999999999 0.0
0.0 12.79999999999999 0.0
0.0 12.69999999999999 0.0
0.0 12.59999999999999 0.0
0.0 12.49999999999999 0.0
0.0 12.39999999999999 0.0
0.0 12.29999999999999 0.0
0.0 12.19999999999999 0.0
0.0 12.09999999999999 0.0
0.0 11.99999999999999 0.0
0.0 11.89999999999999 0.0
0.0 11.79999999999999 0.0
0.0 11.69999999999999 0.0
0.0 11.59999999999999 0.0
0.0 11.49999999999999 0.0
0.0 11.39999999999999 0.0
0.0 11.29999999999999 0.0
0.0 11.19999999999999 0.0
0.0 11.09999999999999 0.0
0.0 10.99999999999999 0.0
0.0 10.89999999999999 0.0
0.0 10.79999999999999 0.0
0.0 10.69999999999999 0.0
0.0 10.59999999999999 0.0
0.0 10.49999999999999 0.0
0.0 10.39999999999999 0.0
0.0 10.29999999999999 0.0
0.0 10.19999999999999 0.0
0.0 10.09999999999999 0.0
0.0 9.999999999999993 0.0
0.0 9.899999999999993 0.0
0.0 9.799999999999994 0.0
0.0 9.699999999999992 0.0
0.0 9.599999999999993 0.0
0.0 9.499999999999993 0.0
0.0 9.399999999999993 0.0
0.0 9.299999999999995 0.0
0.0 9.199999999999996 0.0
0.0 9.099999999999994 0.0
0.0 8.999999999999995 0.0
0.0 8.899999999999995 0.0
0.0 8.799999999999994 0.0
0.0 8.699999999999994 0.0
0.0 8.599999999999994 0.0
0.0 8.499999999999995 0.0
0.0 8.399999999999995 0.0
0.0 8.299999999999994 0.0
0.0 8.199999999999994 0.0
0.0 8.099999999999994 0.0
0.0 7.999999999999993 0.0
0.0 7.899999999999995 0.0
0.0 7.799999999999995 0.0
0.0 7.699999999999996 0.0
0.0 7.599999999999996 0.0
0.0 7.499999999999996 0.0
0.0 7.399999999999995 0.0
0.0 7.299999999999995 0.0
0.0 7.199999999999996 0.0
0.0 7.099999999999994 0.0
0.0 6.999999999999995 0.0
0.0 6.899999999999995 0.0
0.0 6.799999999999995 0.0
0.0 6.699999999999996 0.0
0.0 6.599999999999994 0.0
0.0 6.499999999999995 0.0
0.0 6.399999999999997 0.0
0.0 6.299999999999997 0.0
0.0 6.199999999999996 0.0
0.0 6.099999999999996 0.0
0.0 5.999999999999996 0.0
0.0 5.899999999999997 0.0
0.0 5.799999999999997 0.0
0.0 5.699999999999996 0.0
0.0 5.599999999999996 0.0
0.0 5.499999999999996 0.0
0.0 5.399999999999995 0.0
0.0 5.299999999999995 0.0
0.0 5.199999999999996 0.0
0.0 5.099999999999996 0.0
0.0 4.999999999999998 0.0
0.0 4.899999999999999 0.0
0.0 4.799999999999997 0.0
0.0 4.699999999999998 0.0
0.0 4.599999999999998 0.0
0.0 4.499999999999996 0.0
0.0 4.399999999999997 0.0
0.0 4.299999999999997 0.0
0.0 4.199999999999998 0.0
0.0 4.099999999999998 0.0
0.0 3.999999999999996 0.0
0.0 3.899999999999999 0.0
0.0 3.799999999999997 0.0
0.0 3.699999999999996 0.0
0.0 3.599999999999998 0.0
0.0 3.5 0.0
0.0 3.399999999999999 0.0
0.0 3.299999999999997 0.0
0.0 3.199999999999999 0.0
0.0 3.099999999999998 0.0
0.0 3.0 0.0
0.0 2.899999999999999 0.0
0.0 2.799999999999997 0.0
0.0 2.699999999999999 0.0
0.0 2.599999999999998 0.0
0.0 2.499999999999996 0.0
0.0 2.399999999999999 0.0
0.0 2.299999999999997 0.0
0.0 2.199999999999999 0.0
0.0 2.100000000000001 0.0
0.0 2.0 0.0
0.0 1.899999999999999 0.0
0.0 1.800000000000001 0.0
0.0 1.699999999999999 0.0
0.0 1.599999999999998 0.0
0.0 1.5 0.0
0.0 1.399999999999999 0.0
0.0 1.299999999999997 0.0
0.0 1.199999999999999 0.0
0.0 1.099999999999998 0.0
0.0 1.0 0.0
0.0 0.8999999999999986 0.0
0.0 0.8000000000000007 0.0
0.0 0.6999999999999993 0.0
0.0 0.6000000000000014 0.0
0.0 0.5 0.0
0.0 0.3999999999999986 0.0
0.0 0.3000000000000007 0.0
0.0 0.1999999999999993 0.0
[...]
POINT_DATA 804
VECTORS displacement double
0.0 0.0 0.0
0.0 0.0 0.0
0.0 -0.0017878646377036157 0.0
0.0 -0.0017878646377036086 0.0
0.0 0.0 0.0
0.0 0.0 0.0
0.0 -0.0017878646377036055 0.0
0.0 -0.0017878646377035943 0.0
0.0 -2.7408585378965573e-56 0.0
0.0 9.21519337127423e-55 0.0
0.0 -6.38058974839037e-54 0.0
0.0 -1.155090388817562e-54 0.0
0.0 3.843722061376467e-52 0.0
0.0 -2.998066084573169e-51 0.0
0.0 1.066072594267624e-51 0.0
0.0 1.641130933190982e-49 0.0
0.0 -1.2706366080937235e-48 0.0
0.0 -1.696081912193015e-49 0.0
0.0 7.241711914939565e-47 0.0
0.0 -4.794263419929778e-46 0.0
0.0 -8.571386628183653e-46 0.0
0.0 3.162225484508633e-44 0.0
0.0 -1.4675286894289323e-43 0.0
0.0 -8.330663392030272e-43 0.0
0.0 1.2529244298456192e-41 0.0
0.0 -2.4349727627456315e-41 0.0
0.0 -5.267466923549603e-40 0.0
0.0 3.8886985482881864e-39 0.0
0.0 8.428770459727983e-39 0.0
0.0 -2.351225661724727e-37 0.0
0.0 5.873379499697654e-37 0.0
0.0 9.275668136184395e-36 0.0
0.0 -6.419862178356693e-35 0.0
0.0 -2.2051089299923753e-34 0.0
0.0 3.8113803852672805e-33 0.0
0.0 -1.2791569156720334e-33 0.0
0.0 -1.7482333249619449e-31 0.0
0.0 5.085448579370051e-31 0.0
0.0 6.806319933229558e-30 0.0
0.0 -3.6889687977809167e-29 0.0
0.0 -2.3671663604567286e-28 0.0
0.0 1.9785865333679142e-27 0.0
0.0 7.761373800859146e-27 0.0
0.0 -9.195211020826875e-26 0.0
0.0 -2.613379169831202e-25 0.0
0.0 3.913920206071128e-24 0.0
0.0 1.0088578407805996e-23 0.0
0.0 -1.5529330440243982e-22 0.0
0.0 -4.648968163799982e-22 0.0
0.0 5.67179209238815e-21 0.0
0.0 2.3486524776722252e-20 0.0
0.0 -1.8049588618897937e-19 0.0
0.0 -1.1537277435020066e-18 0.0
0.0 4.240076109115586e-18 0.0
0.0 5.007594267752099e-17 0.0
0.0 -1.7387877130103483e-17 0.0
0.0 -1.7339641047738728e-15 0.0
0.0 -4.990412624623544e-15 0.0
0.0 3.794380308568989e-14 0.0
0.0 3.0265985216188743e-13 0.0
0.0 1.1741604647482738e-13 0.0
0.0 -8.421194459254291e-12 0.0
0.0 -4.452677929910069e-11 0.0
0.0 1.4180189312458847e-12 0.0
0.0 1.2081748217197155e-09 0.0
0.0 7.147717464031662e-09 0.0
0.0 1.4771158961126708e-08 0.0
0.0 -7.390430186317001e-08 0.0
0.0 -8.627749647974573e-07 0.0
0.0 -4.769705973996093e-06 0.0
0.0 -1.903462308473746e-05 0.0
0.0 -6.045571434926783e-05 0.0
0.0 -0.00015890974655475952 0.0
0.0 -0.0003522214695692888 0.0
0.0 -0.0006644876795306224 0.0
0.0 -0.0010720059650225376 0.0
0.0 -0.0014841747935619768 0.0
0.0 -0.0017763277892969072 0.0
0.0 -0.0018747588268716844 0.0
0.0 -0.0018247494578507667 0.0
0.0 -0.0017554706645122474 0.0
0.0 -0.0017557825419578655 0.0
0.0 -0.0017985572330501214 0.0
0.0 -0.001809924235945465 0.0
0.0 -0.0017835640294246078 0.0
0.0 -0.0017729007993825508 0.0
0.0 -0.0017911889156295086 0.0
0.0 -0.0017981980245338968 0.0
0.0 -0.0017839471181139042 0.0
0.0 -0.0017811250936556216 0.0
0.0 -0.0017926609401776668 0.0
0.0 -0.0017914740044305223 0.0
0.0 -0.0017828463815471771 0.0
0.0 -0.0017872571721399282 0.0
0.0 -0.0017921666404244945 0.0
0.0 -0.00178613191470399 0.0
0.0 -0.0017854466778973047 0.0
0.0 -0.0017908160242703021 0.0
0.0 -0.0017879543099551213 0.0
0.0 -0.0017854234794942051 0.0
0.0 -0.00178964935108313 0.0
0.0 -0.0017885777299942326 0.0
0.0 -0.0017858427687626242 0.0
0.0 -0.0017890344824253728 0.0
0.0 -0.0017886131462760298 0.0
0.0 -0.0017862414871452125 0.0
0.0 -0.0017888189475188262 0.0
0.0 -0.0017883956746991075 0.0
0.0 -0.001786566841725675 0.0
0.0 -0.0017888098014506022 0.0
0.0 -0.0017880583367005213 0.0
0.0 -0.0017868905627800222 0.0
0.0 -0.0017888472005879914 0.0
0.0 -0.0017876697234850433 0.0
0.0 -0.0017872893085221745 0.0
0.0 -0.0017887900257820037 0.0
0.0 -0.0017873231999191556 0.0
0.0 -0.0017877760928311848 0.0
0.0 -0.0017885303244489707 0.0
0.0 -0.0017871632140888493 0.0
0.0 -0.0017882473780215433 0.0
0.0 -0.001788063530410022 0.0
0.0 -0.0017873239595507082 0.0
0.0 -0.0017884905382320876 0.0
0.0 -0.0017875666780053968 0.0
0.0 -0.0017877835899399919 0.0
0.0 -0.0017883239914558713 0.0
0.0 -0.0017873561622420812 0.0
0.0 -0.0017882535061431628 0.0
0.0 -0.0017878368705974497 0.0
0.0 -0.001787623684359699 0.0
0.0 -0.0017883251423451336 0.0
0.0 -0.0017874680332833437 0.0
0.0 -0.0017881196689729204 0.0
0.0 -0.0017879155540498784 0.0
0.0 -0.0017876266104935523 0.0
0.0 -0.0017882667196789212 0.0
0.0 -0.0017875288357488272 0.0
0.0 -0.001788102758715596 0.0
0.0 -0.0017878733795416654 0.0
0.0 -0.0017877072261602647 0.0
0.0 -0.0017881910270545138 0.0
0.0 -0.0017875559218169684 0.0
0.0 -0.0017881479905781418 0.0
0.0 -0.0017877623729236588 0.0
0.0 -0.0017878500161378238 0.0
0.0 -0.0017880649290172503 0.0
0.0 -0.0017876198659033495 0.0
0.0 -0.0017881734352124864 0.0
0.0 -0.001787646993519094 0.0
0.0 -0.001788029602747341 0.0
0.0 -0.0017878652519180125 0.0
0.0 -0.0017877896164001901 0.0
0.0 -0.0017880766116454385 0.0
0.0 -0.0017876451121953067 0.0
0.0 -0.0017881336591701084 0.0
0.0 -0.0017876775274183018 0.0
0.0 -0.0017880257058441845 0.0
0.0 -0.0017878362319088633 0.0
0.0 -0.0017878459738985579 0.0
0.0 -0.0017880079567134059 0.0
0.0 -0.0017877062473407967 0.0
0.0 -0.0017880994707318442 0.0
0.0 -0.0017876704124486803 0.0
0.0 -0.0017880804482854613 0.0
0.0 -0.0017877367456725505 0.0
0.0 -0.0017879789629367177 0.0
0.0 -0.0017878589221237407 0.0
0.0 -0.0017878507787224553 0.0
0.0 -0.0017879799104810797 0.0
0.0 -0.0017877475760077351 0.0
0.0 -0.0017880579810599226 0.0
0.0 -0.0017876986307018001 0.0
0.0 -0.0017880769275216157 0.0
0.0 -0.001787707964212563 0.0
0.0 -0.0017880429918346703 0.0
0.0 -0.0017877615697659732 0.0
0.0 -0.0017879752711553946 0.0
0.0 -0.001787837798262898 0.0
0.0 -0.0017878957765869144 0.0
0.0 -0.001787915999663301 0.0
0.0 -0.0017878225798469507 0.0
0.0 -0.001787981413236607 0.0
0.0 -0.001787766821260031 0.0
0.0 -0.0017880264885865298 0.0
0.0 -0.001787732741095402 0.0
0.0 -0.0017880498533816604 0.0
0.0 -0.0017877193720763308 0.0
0.0 -0.0017880542618520338 0.0
0.0 -0.00178772270376325 0.0
0.0 -0.0017880445031708391 0.0
0.0 -0.001787737574121055 0.0
0.0 -0.001788025785728722 0.0
0.0 -0.0017877589757612003 0.0
0.0 -0.0017880027419621453 0.0
0.0 -0.0017877827608761734 0.0
0.0 -0.0017879789788407929 0.0
0.0 -0.0017878058772505697 0.0
0.0 -0.0017879570115631046 0.0
0.0 -0.001787826306845271 0.0
0.0 -0.0017879384148557864 0.0
0.0 -0.0017878428570455606 0.0
0.0 -0.0017879240625846063 0.0
0.0 -0.0017878549110972193 0.0
0.0 -0.001787914371526095 0.0
0.0 -0.0017878622014492421 0.0
0.0 -0.0017879095031897252 0.0
0.0 -0.0017879095031897152 0.0
0.0 -0.001787862201449249 0.0
0.0 -0.001787914371526108 0.0
0.0 -0.0017878549110972182 0.0
0.0 -0.0017879240625846154 0.0
0.0 -0.0017878428570455441 0.0
0.0 -0.001787938414855778 0.0
0.0 -0.0017878263068452748 0.0
0.0 -0.0017879570115631042 0.0
0.0 -0.0017878058772505783 0.0
0.0 -0.0017879789788407827 0.0
0.0 -0.0017877827608761792 0.0
0.0 -0.0017880027419621555 0.0
0.0 -0.001787758975761197 0.0
0.0 -0.001788025785728713 0.0
0.0 -0.0017877375741210575 0.0
0.0 -0.0017880445031708367 0.0
0.0 -0.0017877227037632576 0.0
0.0 -0.001788054261852032 0.0
0.0 -0.001787719372076344 0.0
0.0 -0.0017880498533816784 0.0
0.0 -0.0017877327410953912 0.0
0.0 -0.0017880264885865504 0.0
0.0 -0.0017877668212600512 0.0
0.0 -0.0017879814132365922 0.0
0.0 -0.0017878225798469603 0.0
0.0 -0.0017879159996632967 0.0
0.0 -0.0017878957765869177 0.0
0.0 -0.0017878377982628827 0.0
0.0 -0.0017879752711554046 0.0
0.0 -0.001787761569765959 0.0
0.0 -0.0017880429918346614 0.0
0.0 -0.0017877079642125745 0.0
0.0 -0.0017880769275216279 0.0
0.0 -0.0017876986307018017 0.0
0.0 -0.001788057981059919 0.0
0.0 -0.0017877475760077356 0.0
0.0 -0.0017879799104810793 0.0
0.0 -0.0017878507787224736 0.0
0.0 -0.0017878589221237355 0.0
0.0 -0.0017879789629367275 0.0
0.0 -0.0017877367456725344 0.0
0.0 -0.001788080448285463 0.0
0.0 -0.0017876704124486812 0.0
0.0 -0.0017880994707318348 0.0
0.0 -0.0017877062473407813 0.0
0.0 -0.001788007956713392 0.0
0.0 -0.0017878459738985694 0.0
0.0 -0.0017878362319088455 0.0
0.0 -0.001788025705844203 0.0
0.0 -0.001787677527418293 0.0
0.0 -0.001788133659170123 0.0
0.0 -0.0017876451121953147 0.0
0.0 -0.0017880766116454446 0.0
0.0 -0.0017877896164002196 0.0
0.0 -0.0017878652519180008 0.0
0.0 -0.0017880296027473698 0.0
0.0 -0.0017876469935190716 0.0
0.0 -0.0017881734352124792 0.0
0.0 -0.0017876198659033638 0.0
0.0 -0.0017880649290171985 0.0
0.0 -0.0017878500161378535 0.0
0.0 -0.0017877623729236217 0.0
0.0 -0.001788147990578142 0.0
0.0 -0.0017875559218169697 0.0
0.0 -0.0017881910270544892 0.0
0.0 -0.0017877072261602996 0.0
0.0 -0.0017878733795416285 0.0
0.0 -0.0017881027587156376 0.0
0.0 -0.0017875288357488066 0.0
0.0 -0.0017882667196789084 0.0
0.0 -0.0017876266104936084 0.0
0.0 -0.001787915554049833 0.0
0.0 -0.0017881196689729774 0.0
0.0 -0.0017874680332833175 0.0
0.0 -0.0017883251423451013 0.0
0.0 -0.0017876236843597797 0.0
0.0 -0.0017878368705973547 0.0
0.0 -0.001788253506143247 0.0
0.0 -0.001787356162242085 0.0
0.0 -0.001788323991455791 0.0
0.0 -0.001787783589940113 0.0
0.0 -0.0017875666780052888 0.0
0.0 -0.001788490538232117 0.0
0.0 -0.0017873239595507762 0.0
0.0 -0.0017880635304098817 0.0
0.0 -0.0017882473780216723 0.0
0.0 -0.0017871632140888105 0.0
0.0 -0.0017885303244488627 0.0
0.0 -0.0017877760928313882 0.0
0.0 -0.0017873231999190123 0.0
0.0 -0.0017887900257819774 0.0
0.0 -0.0017872893085223475 0.0
0.0 -0.0017876697234847994 0.0
0.0 -0.001788847200588113 0.0
0.0 -0.0017868905627801612 0.0
0.0 -0.0017880583367002303 0.0
0.0 -0.0017888098014508206 0.0
0.0 -0.0017865668417257545 0.0
0.0 -0.0017883956746987586 0.0
0.0 -0.0017888189475191443 0.0
0.0 -0.0017862414871452589 0.0
0.0 -0.0017886131462755746 0.0
0.0 -0.0017890344824257845 0.0
0.0 -0.0017858427687627194 0.0
0.0 -0.0017885777299936358 0.0
0.0 -0.00178964935108358 0.0
0.0 -0.0017854234794945042 0.0
0.0 -0.0017879543099543042 0.0
0.0 -0.0017908160242706412 0.0
0.0 -0.001785446677898066 0.0
0.0 -0.0017861319147030002 0.0
0.0 -0.0017921666404242598 0.0
0.0 -0.0017872571721413348 0.0
0.0 -0.0017828463815466535 0.0
0.0 -0.0017914740044289994 0.0
0.0 -0.0017926609401790817 0.0
0.0 -0.0017811250936570237 0.0
0.0 -0.0017839471181115636 0.0
0.0 -0.0017981980245326706 0.0
0.0 -0.0017911889156328347 0.0
0.0 -0.0017729007993838703 0.0
0.0 -0.0017835640294200964 0.0
0.0 -0.0018099242359431744 0.0
0.0 -0.001798557233056044 0.0
0.0 -0.0017557825419632755 0.0
0.0 -0.0017554706645058701 0.0
0.0 -0.0018247494578380262 0.0
0.0 -0.0018747588268728215 0.0
0.0 -0.001776327789326957 0.0
0.0 -0.0014841747936170434 0.0
0.0 -0.0010720059650849423 0.0
0.0 -0.0006644876795831701 0.0
0.0 -0.00035222146960434613 0.0
0.0 -0.0001589097465738057 0.0
0.0 -6.045571435778152e-05 0.0
0.0 -1.903462308785534e-05 0.0
0.0 -4.769705974912481e-06 0.0
0.0 -8.62774965002086e-07 0.0
0.0 -7.390430189239814e-08 0.0
0.0 1.4771158960918158e-08 0.0
0.0 7.14771746520172e-09 0.0
0.0 1.2081748220305081e-09 0.0
0.0 1.4180189588106818e-12 0.0
0.0 -4.45267793047879e-11 0.0
0.0 -8.421194461322648e-12 0.0
0.0 1.174160463146193e-13 0.0
0.0 3.0265985220597413e-13 0.0
0.0 3.7943803096973015e-14 0.0
0.0 -4.990412624603314e-15 0.0
0.0 -1.733964105114562e-15 0.0
0.0 -1.7387877163809365e-17 0.0
0.0 5.007594268444589e-17 0.0
0.0 4.240076110570261e-18 0.0
0.0 -1.15372774359943e-18 0.0
0.0 -1.804958862328808e-19 0.0
0.0 2.3486524777349555e-20 0.0
0.0 5.671792093525343e-21 0.0
0.0 -4.648968163662539e-22 0.0
0.0 -1.5529330442979362e-22 0.0
0.0 1.0088578407207676e-23 0.0
0.0 3.91392020670465e-24 0.0
0.0 -2.6133791697238485e-25 0.0
0.0 -9.195211022245916e-26 0.0
0.0 7.761373800873095e-27 0.0
0.0 1.9785865336689983e-27 0.0
0.0 -2.367166360548459e-28 0.0
0.0 -3.6889687983590935e-29 0.0
0.0 6.806319933644023e-30 0.0
0.0 5.085448580296235e-31 0.0
0.0 -1.7482333250862935e-31 0.0
0.0 -1.2791569166693869e-33 0.0
0.0 3.811380385545805e-33 0.0
0.0 -2.205108929997085e-34 0.0
0.0 -6.41986217882091e-35 0.0
0.0 9.275668136487775e-36 0.0
0.0 5.8733795003289735e-37 0.0
0.0 -2.351225661823396e-37 0.0
0.0 8.428770459235972e-39 0.0
0.0 3.88869854852435e-39 0.0
0.0 -5.267466923676428e-40 0.0
0.0 -2.4349727630636524e-41 0.0
0.0 1.2529244299019504e-41 0.0
0.0 -8.330663392082997e-43 0.0
0.0 -1.4675286895161245e-43 0.0
0.0 3.162225484606281e-44 0.0
0.0 -8.571386627742808e-46 0.0
0.0 -4.7942634201526354e-46 0.0
0.0 7.241711915155985e-47 0.0
0.0 -1.6960819120037046e-49 0.0
0.0 -1.2706366081144117e-48 0.0
0.0 1.6411309331901985e-49 0.0
0.0 1.066072594983405e-51 0.0
0.0 -2.9980660847460495e-51 0.0
0.0 3.843722061671353e-52 0.0
0.0 -1.155090393642238e-54 0.0
0.0 -6.380589747534954e-54 0.0
0.0 9.215193369667957e-55 0.0
0.0 -2.740858534954014e-56 0.0
0.0 -2.740858534893573e-56 0.0
0.0 9.21519336962841e-55 0.0
0.0 -6.380589747520237e-54 0.0
0.0 -1.1550903934009726e-54 0.0
0.0 3.843722061617231e-52 0.0
0.0 -2.998066084699246e-51 0.0
0.0 1.0660725949255074e-51 0.0
0.0 1.6411309331567938e-49 0.0
0.0 -1.2706366080760358e-48 0.0
0.0 -1.6960819131023285e-49 0.0
0.0 7.241711914986057e-47 0.0
0.0 -4.79426341995335e-46 0.0
0.0 -8.571386628065176e-46 0.0
0.0 3.162225484502726e-44 0.0
0.0 -1.4675286894260118e-43 0.0
0.0 -8.330663392044466e-43 0.0
0.0 1.2529244298462947e-41 0.0
0.0 -2.434972762748789e-41 0.0
0.0 -5.267466923548231e-40 0.0
0.0 3.8886985482875736e-39 0.0
0.0 8.428770459730442e-39 0.0
0.0 -2.351225661724802e-37 0.0
0.0 5.873379499697749e-37 0.0
0.0 9.275668136184548e-36 0.0
0.0 -6.419862178356776e-35 0.0
0.0 -2.2051089299923325e-34 0.0
0.0 3.8113803852672654e-33 0.0
0.0 -1.279156915671909e-33 0.0
0.0 -1.748233324961956e-31 0.0
0.0 5.0854485793701076e-31 0.0
0.0 6.806319933229494e-30 0.0
0.0 -3.6889687977809105e-29 0.0
0.0 -2.3671663604566595e-28 0.0
0.0 1.978586533367797e-27 0.0
0.0 7.761373800859703e-27 0.0
0.0 -9.195211020826926e-26 0.0
0.0 -2.613379169831151e-25 0.0
0.0 3.913920206071116e-24 0.0
0.0 1.0088578407806392e-23 0.0
0.0 -1.5529330440244213e-22 0.0
0.0 -4.6489681637998565e-22 0.0
0.0 5.6717920923881906e-21 0.0
0.0 2.3486524776721927e-20 0.0
0.0 -1.804958861889777e-19 0.0
0.0 -1.1537277435019819e-18 0.0
0.0 4.240076109115426e-18 0.0
0.0 5.007594267752051e-17 0.0
0.0 -1.7387877130099686e-17 0.0
0.0 -1.7339641047738418e-15 0.0
0.0 -4.990412624623615e-15 0.0
0.0 3.794380308568872e-14 0.0
0.0 3.0265985216189086e-13 0.0
0.0 1.17416046474793e-13 0.0
0.0 -8.421194459254285e-12 0.0
0.0 -4.4526779299100776e-11 0.0
0.0 1.4180189312486163e-12 0.0
0.0 1.208174821719686e-09 0.0
0.0 7.147717464031584e-09 0.0
0.0 1.4771158961127628e-08 0.0
0.0 -7.390430186317277e-08 0.0
0.0 -8.627749647974444e-07 0.0
0.0 -4.769705973996065e-06 0.0
0.0 -1.903462308473761e-05 0.0
0.0 -6.0455714349267886e-05 0.0
0.0 -0.0001589097465547581 0.0
0.0 -0.00035222146956929 0.0
0.0 -0.0006644876795306181 0.0
0.0 -0.0010720059650225356 0.0
0.0 -0.0014841747935619763 0.0
0.0 -0.0017763277892969087 0.0
0.0 -0.0018747588268716814 0.0
0.0 -0.0018247494578507726 0.0
0.0 -0.001755470664512238 0.0
0.0 -0.001755782541957859 0.0
0.0 -0.0017985572330501264 0.0
0.0 -0.0018099242359454627 0.0
0.0 -0.0017835640294246015 0.0
0.0 -0.0017729007993825415 0.0
0.0 -0.0017911889156295004 0.0
0.0 -0.0017981980245339087 0.0
0.0 -0.0017839471181139135 0.0
0.0 -0.0017811250936556296 0.0
0.0 -0.0017926609401776638 0.0
0.0 -0.001791474004430506 0.0
0.0 -0.00178284638154719 0.0
0.0 -0.001787257172139926 0.0
0.0 -0.0017921666404244947 0.0
0.0 -0.0017861319147039806 0.0
0.0 -0.0017854466778973088 0.0
0.0 -0.0017908160242703077 0.0
0.0 -0.0017879543099551295 0.0
0.0 -0.0017854234794942145 0.0
0.0 -0.0017896493510831224 0.0
0.0 -0.0017885777299942284 0.0
0.0 -0.0017858427687626314 0.0
0.0 -0.0017890344824253745 0.0
0.0 -0.0017886131462760246 0.0
0.0 -0.0017862414871452122 0.0
0.0 -0.001788818947518816 0.0
0.0 -0.0017883956746991138 0.0
0.0 -0.001786566841725678 0.0
0.0 -0.0017888098014505955 0.0
0.0 -0.0017880583367005298 0.0
0.0 -0.001786890562780029 0.0
0.0 -0.0017888472005880005 0.0
0.0 -0.0017876697234850364 0.0
0.0 -0.001787289308522171 0.0
0.0 -0.0017887900257819863 0.0
0.0 -0.0017873231999191613 0.0
0.0 -0.001787776092831201 0.0
0.0 -0.0017885303244489594 0.0
0.0 -0.0017871632140888597 0.0
0.0 -0.0017882473780215385 0.0
0.0 -0.0017880635304100166 0.0
0.0 -0.001787323959550712 0.0
0.0 -0.0017884905382320928 0.0
0.0 -0.0017875666780053927 0.0
0.0 -0.0017877835899400044 0.0
0.0 -0.0017883239914558576 0.0
0.0 -0.0017873561622420732 0.0
0.0 -0.001788253506143164 0.0
0.0 -0.0017878368705974404 0.0
0.0 -0.0017876236843597083 0.0
0.0 -0.0017883251423451317 0.0
0.0 -0.0017874680332833413 0.0
0.0 -0.00178811966897291 0.0
0.0 -0.0017879155540498962 0.0
0.0 -0.0017876266104935696 0.0
0.0 -0.0017882667196789295 0.0
0.0 -0.0017875288357488248 0.0
0.0 -0.0017881027587155825 0.0
0.0 -0.0017878733795416715 0.0
0.0 -0.001787707226160245 0.0
0.0 -0.0017881910270545027 0.0
0.0 -0.0017875559218169608 0.0
0.0 -0.001788147990578119 0.0
0.0 -0.0017877623729236575 0.0
0.0 -0.0017878500161378113 0.0
0.0 -0.00178806492901723 0.0
0.0 -0.0017876198659033489 0.0
0.0 -0.0017881734352124844 0.0
0.0 -0.0017876469935190894 0.0
0.0 -0.001788029602747347 0.0
0.0 -0.001787865251918019 0.0
0.0 -0.0017877896164001917 0.0
0.0 -0.0017880766116454376 0.0
0.0 -0.0017876451121953056 0.0
0.0 -0.001788133659170124 0.0
0.0 -0.001787677527418306 0.0
0.0 -0.0017880257058441767 0.0
0.0 -0.0017878362319088533 0.0
0.0 -0.0017878459738985457 0.0
0.0 -0.0017880079567134098 0.0
0.0 -0.0017877062473407807 0.0
0.0 -0.0017880994707318563 0.0
0.0 -0.0017876704124486886 0.0
0.0 -0.0017880804482854667 0.0
0.0 -0.0017877367456725448 0.0
0.0 -0.0017879789629367281 0.0
0.0 -0.001787858922123739 0.0
0.0 -0.0017878507787224658 0.0
0.0 -0.0017879799104810895 0.0
0.0 -0.0017877475760077293 0.0
0.0 -0.0017880579810599284 0.0
0.0 -0.0017876986307017893 0.0
0.0 -0.001788076927521613 0.0
0.0 -0.0017877079642125739 0.0
0.0 -0.0017880429918346577 0.0
0.0 -0.0017877615697659693 0.0
0.0 -0.0017879752711553946 0.0
0.0 -0.0017878377982628799 0.0
0.0 -0.0017878957765868966 0.0
0.0 -0.0017879159996633067 0.0
0.0 -0.0017878225798469455 0.0
0.0 -0.0017879814132365905 0.0
0.0 -0.0017877668212600477 0.0
0.0 -0.0017880264885865513 0.0
0.0 -0.001787732741095372 0.0
0.0 -0.0017880498533816662 0.0
0.0 -0.0017877193720763336 0.0
0.0 -0.0017880542618520295 0.0
0.0 -0.00178772270376325 0.0
0.0 -0.0017880445031708255 0.0
0.0 -0.001787737574121057 0.0
0.0 -0.0017880257857287095 0.0
0.0 -0.0017877589757612062 0.0
0.0 -0.0017880027419621485 0.0
0.0 -0.0017877827608761719 0.0
0.0 -0.0017879789788407899 0.0
0.0 -0.0017878058772505894 0.0
0.0 -0.0017879570115631029 0.0
0.0 -0.0017878263068452807 0.0
0.0 -0.001787938414855781 0.0
0.0 -0.0017878428570455537 0.0
0.0 -0.0017879240625846098 0.0
0.0 -0.001787854911097221 0.0
0.0 -0.001787914371526095 0.0
0.0 -0.0017878622014492408 0.0
0.0 -0.0017879095031897092 0.0
0.0 -0.001787909503189726 0.0
0.0 -0.001787862201449247 0.0
0.0 -0.0017879143715261092 0.0
0.0 -0.0017878549110972137 0.0
0.0 -0.0017879240625846122 0.0
0.0 -0.0017878428570455432 0.0
0.0 -0.0017879384148557877 0.0
0.0 -0.0017878263068452666 0.0
0.0 -0.0017879570115631096 0.0
0.0 -0.0017878058772505887 0.0
0.0 -0.0017879789788407992 0.0
0.0 -0.001787782760876175 0.0
0.0 -0.001788002741962148 0.0
0.0 -0.0017877589757611997 0.0
0.0 -0.0017880257857287116 0.0
0.0 -0.0017877375741210573 0.0
0.0 -0.0017880445031708372 0.0
0.0 -0.0017877227037632595 0.0
0.0 -0.0017880542618520356 0.0
0.0 -0.001787719372076337 0.0
0.0 -0.0017880498533816732 0.0
0.0 -0.001787732741095404 0.0
0.0 -0.0017880264885865365 0.0
0.0 -0.0017877668212600431 0.0
0.0 -0.0017879814132366022 0.0
0.0 -0.0017878225798469514 0.0
0.0 -0.0017879159996632941 0.0
0.0 -0.001787895776586901 0.0
0.0 -0.0017878377982628783 0.0
0.0 -0.0017879752711554044 0.0
0.0 -0.0017877615697659754 0.0
0.0 -0.0017880429918346703 0.0
0.0 -0.0017877079642125674 0.0
0.0 -0.001788076927521607 0.0
0.0 -0.0017876986307017956 0.0
0.0 -0.0017880579810599258 0.0
0.0 -0.0017877475760077395 0.0
0.0 -0.001787979910481064 0.0
0.0 -0.0017878507787224638 0.0
0.0 -0.0017878589221237326 0.0
0.0 -0.0017879789629367236 0.0
0.0 -0.0017877367456725318 0.0
0.0 -0.001788080448285474 0.0
0.0 -0.0017876704124486838 0.0
0.0 -0.0017880994707318394 0.0