# vtk DataFile Version 2.0
data_284
ASCII
DATASET UNSTRUCTURED_GRID
POINTS 804 float
0.0 0.0 0.0
0.1 0.0 0.0
0.1 20.0 0.0
0.0 20.0 0.0
0.0 0.0 -0.1
0.1 0.0 -0.1
0.1 20.0 -0.1
0.0 20.0 -0.1
0.1 0.09999999999992462 0.0
0.1 0.1999999999998517 0.0
0.1 0.2999999999997818 0.0
0.1 0.399999999999712 0.0
0.1 0.4999999999996377 0.0
0.1 0.5999999999995541 0.0
0.1 0.6999999999994495 0.0
0.1 0.7999999999993355 0.0
0.1 0.8999999999992101 0.0
0.1 0.999999999999102 0.0
0.1 1.099999999999006 0.0
0.1 1.199999999998936 0.0
0.1 1.299999999998867 0.0
0.1 1.399999999998797 0.0
0.1 1.499999999998727 0.0
0.1 1.599999999998657 0.0
0.1 1.699999999998587 0.0
0.1 1.799999999998517 0.0
0.1 1.899999999998447 0.0
0.1 1.999999999998378 0.0
0.1 2.099999999998308 0.0
0.1 2.199999999998238 0.0
0.1 2.299999999998168 0.0
0.1 2.399999999998067 0.0
0.1 2.499999999997942 0.0
0.1 2.599999999997706 0.0
0.1 2.699999999997444 0.0
0.1 2.799999999997153 0.0
0.1 2.899999999996861 0.0
0.1 2.999999999996569 0.0
0.1 3.099999999996277 0.0
0.1 3.199999999995984 0.0
0.1 3.299999999995693 0.0
0.1 3.399999999995401 0.0
0.1 3.499999999995108 0.0
0.1 3.599999999994816 0.0
0.1 3.699999999994525 0.0
0.1 3.799999999994232 0.0
0.1 3.89999999999394 0.0
0.1 3.999999999993648 0.0
0.1 4.099999999993356 0.0
0.1 4.199999999993064 0.0
0.1 4.299999999992772 0.0
0.1 4.399999999992479 0.0
0.1 4.499999999992188 0.0
0.1 4.599999999991895 0.0
0.1 4.699999999991603 0.0
0.1 4.799999999991311 0.0
0.1 4.899999999991019 0.0
0.1 4.999999999990727 0.0
0.1 5.099999999990436 0.0
0.1 5.199999999990144 0.0
0.1 5.299999999989851 0.0
0.1 5.399999999989559 0.0
0.1 5.499999999989267 0.0
0.1 5.599999999988975 0.0
0.1 5.699999999988683 0.0
0.1 5.799999999988391 0.0
0.1 5.899999999988099 0.0
0.1 5.999999999987806 0.0
0.1 6.099999999987515 0.0
0.1 6.199999999987222 0.0
0.1 6.299999999986929 0.0
0.1 6.399999999986638 0.0
0.1 6.499999999986345 0.0
0.1 6.599999999986054 0.0
0.1 6.699999999985762 0.0
0.1 6.79999999998547 0.0
0.1 6.899999999985177 0.0
0.1 6.999999999984885 0.0
0.1 7.099999999984593 0.0
0.1 7.199999999984302 0.0
0.1 7.299999999984009 0.0
0.1 7.399999999983717 0.0
0.1 7.499999999983426 0.0
0.1 7.599999999983132 0.0
0.1 7.699999999982841 0.0
0.1 7.799999999982549 0.0
0.1 7.899999999982256 0.0
0.1 7.999999999982034 0.0
0.1 8.099999999981964 0.0
0.1 8.199999999982062 0.0
0.1 8.299999999982214 0.0
0.1 8.399999999982366 0.0
0.1 8.499999999982517 0.0
0.1 8.59999999998267 0.0
0.1 8.699999999982822 0.0
0.1 8.799999999982973 0.0
0.1 8.899999999983125 0.0
0.1 8.999999999983277 0.0
0.1 9.09999999998343 0.0
0.1 9.19999999998358 0.0
0.1 9.299999999983733 0.0
0.1 9.399999999983885 0.0
0.1 9.499999999984038 0.0
0.1 9.599999999984188 0.0
0.1 9.69999999998434 0.0
0.1 9.799999999984493 0.0
0.1 9.899999999984646 0.0
0.1 9.999999999984798 0.0
0.1 10.09999999998495 0.0
0.1 10.1999999999851 0.0
0.1 10.29999999998525 0.0
0.1 10.39999999998541 0.0
0.1 10.49999999998556 0.0
0.1 10.59999999998571 0.0
0.1 10.69999999998586 0.0
0.1 10.79999999998601 0.0
0.1 10.89999999998616 0.0
0.1 10.99999999998632 0.0
0.1 11.09999999998647 0.0
0.1 11.19999999998662 0.0
0.1 11.29999999998677 0.0
0.1 11.39999999998693 0.0
0.1 11.49999999998708 0.0
0.1 11.59999999998723 0.0
0.1 11.69999999998738 0.0
0.1 11.79999999998754 0.0
0.1 11.89999999998769 0.0
0.1 11.99999999998784 0.0
0.1 12.09999999998799 0.0
0.1 12.19999999998814 0.0
0.1 12.2999999999883 0.0
0.1 12.39999999998845 0.0
0.1 12.4999999999886 0.0
0.1 12.59999999998875 0.0
0.1 12.6999999999889 0.0
0.1 12.79999999998905 0.0
0.1 12.89999999998921 0.0
0.1 12.99999999998936 0.0
0.1 13.09999999998951 0.0
0.1 13.19999999998966 0.0
0.1 13.29999999998982 0.0
0.1 13.39999999998997 0.0
0.1 13.49999999999012 0.0
0.1 13.59999999999027 0.0
0.1 13.69999999999042 0.0
0.1 13.79999999999057 0.0
0.1 13.89999999999073 0.0
0.1 13.99999999999088 0.0
0.1 14.09999999999103 0.0
0.1 14.19999999999118 0.0
0.1 14.29999999999134 0.0
0.1 14.39999999999149 0.0
0.1 14.49999999999164 0.0
0.1 14.59999999999179 0.0
0.1 14.69999999999194 0.0
0.1 14.7999999999921 0.0
0.1 14.89999999999225 0.0
0.1 14.9999999999924 0.0
0.1 15.09999999999255 0.0
0.1 15.1999999999927 0.0
0.1 15.29999999999285 0.0
0.1 15.39999999999301 0.0
0.1 15.49999999999316 0.0
0.1 15.59999999999331 0.0
0.1 15.69999999999346 0.0
0.1 15.79999999999362 0.0
0.1 15.89999999999377 0.0
0.1 15.99999999999392 0.0
0.1 16.09999999999407 0.0
0.1 16.19999999999422 0.0
0.1 16.29999999999437 0.0
0.1 16.39999999999453 0.0
0.1 16.49999999999468 0.0
0.1 16.59999999999483 0.0
0.1 16.69999999999498 0.0
0.1 16.79999999999514 0.0
0.1 16.89999999999528 0.0
0.1 16.99999999999544 0.0
0.1 17.09999999999559 0.0
0.1 17.19999999999574 0.0
0.1 17.29999999999589 0.0
0.1 17.39999999999605 0.0
0.1 17.4999999999962 0.0
0.1 17.59999999999635 0.0
0.1 17.6999999999965 0.0
0.1 17.79999999999665 0.0
0.1 17.89999999999681 0.0
0.1 17.99999999999696 0.0
0.1 18.09999999999711 0.0
0.1 18.19999999999726 0.0
0.1 18.29999999999742 0.0
0.1 18.39999999999757 0.0
0.1 18.49999999999772 0.0
0.1 18.59999999999787 0.0
0.1 18.69999999999802 0.0
0.1 18.79999999999818 0.0
0.1 18.89999999999833 0.0
0.1 18.99999999999848 0.0
0.1 19.09999999999863 0.0
0.1 19.19999999999878 0.0
0.1 19.29999999999894 0.0
0.1 19.39999999999909 0.0
0.1 19.49999999999924 0.0
0.1 19.59999999999939 0.0
0.1 19.69999999999955 0.0
0.1 19.7999999999997 0.0
0.1 19.89999999999985 0.0
0.0 19.9 0.0
0.0 19.8 0.0
0.0 19.7 0.0
0.0 19.6 0.0
0.0 19.5 0.0
0.0 19.4 0.0
0.0 19.3 0.0
0.0 19.2 0.0
0.0 19.1 0.0
0.0 19.0 0.0
0.0 18.9 0.0
0.0 18.8 0.0
0.0 18.7 0.0
0.0 18.6 0.0
0.0 18.5 0.0
0.0 18.4 0.0
0.0 18.3 0.0
0.0 18.2 0.0
0.0 18.1 0.0
0.0 18.0 0.0
0.0 17.9 0.0
0.0 17.8 0.0
0.0 17.7 0.0
0.0 17.6 0.0
0.0 17.5 0.0
0.0 17.4 0.0
0.0 17.3 0.0
0.0 17.2 0.0
0.0 17.09999999999999 0.0
0.0 17.0 0.0
0.0 16.9 0.0
0.0 16.8 0.0
0.0 16.7 0.0
0.0 16.59999999999999 0.0
0.0 16.49999999999999 0.0
0.0 16.4 0.0
0.0 16.29999999999999 0.0
0.0 16.2 0.0
0.0 16.09999999999999 0.0
0.0 15.99999999999999 0.0
0.0 15.89999999999999 0.0
0.0 15.79999999999999 0.0
0.0 15.69999999999999 0.0
0.0 15.59999999999999 0.0
0.0 15.49999999999999 0.0
0.0 15.39999999999999 0.0
0.0 15.29999999999999 0.0
0.0 15.19999999999999 0.0
0.0 15.09999999999999 0.0
0.0 14.99999999999999 0.0
0.0 14.89999999999999 0.0
0.0 14.79999999999999 0.0
0.0 14.69999999999999 0.0
0.0 14.59999999999999 0.0
0.0 14.49999999999999 0.0
0.0 14.39999999999999 0.0
0.0 14.29999999999999 0.0
0.0 14.19999999999999 0.0
0.0 14.09999999999999 0.0
0.0 13.99999999999999 0.0
0.0 13.89999999999999 0.0
0.0 13.79999999999999 0.0
0.0 13.69999999999999 0.0
0.0 13.59999999999999 0.0
0.0 13.49999999999999 0.0
0.0 13.39999999999999 0.0
0.0 13.29999999999999 0.0
0.0 13.19999999999999 0.0
0.0 13.09999999999999 0.0
0.0 12.99999999999999 0.0
0.0 12.89999999999999 0.0
0.0 12.79999999999999 0.0
0.0 12.69999999999999 0.0
0.0 12.59999999999999 0.0
0.0 12.49999999999999 0.0
0.0 12.39999999999999 0.0
0.0 12.29999999999999 0.0
0.0 12.19999999999999 0.0
0.0 12.09999999999999 0.0
0.0 11.99999999999999 0.0
0.0 11.89999999999999 0.0
0.0 11.79999999999999 0.0
0.0 11.69999999999999 0.0
0.0 11.59999999999999 0.0
0.0 11.49999999999999 0.0
0.0 11.39999999999999 0.0
0.0 11.29999999999999 0.0
0.0 11.19999999999999 0.0
0.0 11.09999999999999 0.0
0.0 10.99999999999999 0.0
0.0 10.89999999999999 0.0
0.0 10.79999999999999 0.0
0.0 10.69999999999999 0.0
0.0 10.59999999999999 0.0
0.0 10.49999999999999 0.0
0.0 10.39999999999999 0.0
0.0 10.29999999999999 0.0
0.0 10.19999999999999 0.0
0.0 10.09999999999999 0.0
0.0 9.999999999999993 0.0
0.0 9.899999999999993 0.0
0.0 9.799999999999994 0.0
0.0 9.699999999999992 0.0
0.0 9.599999999999993 0.0
0.0 9.499999999999993 0.0
0.0 9.399999999999993 0.0
0.0 9.299999999999995 0.0
0.0 9.199999999999996 0.0
0.0 9.099999999999994 0.0
0.0 8.999999999999995 0.0
0.0 8.899999999999995 0.0
0.0 8.799999999999994 0.0
0.0 8.699999999999994 0.0
0.0 8.599999999999994 0.0
0.0 8.499999999999995 0.0
0.0 8.399999999999995 0.0
0.0 8.299999999999994 0.0
0.0 8.199999999999994 0.0
0.0 8.099999999999994 0.0
0.0 7.999999999999993 0.0
0.0 7.899999999999995 0.0
0.0 7.799999999999995 0.0
0.0 7.699999999999996 0.0
0.0 7.599999999999996 0.0
0.0 7.499999999999996 0.0
0.0 7.399999999999995 0.0
0.0 7.299999999999995 0.0
0.0 7.199999999999996 0.0
0.0 7.099999999999994 0.0
0.0 6.999999999999995 0.0
0.0 6.899999999999995 0.0
0.0 6.799999999999995 0.0
0.0 6.699999999999996 0.0
0.0 6.599999999999994 0.0
0.0 6.499999999999995 0.0
0.0 6.399999999999997 0.0
0.0 6.299999999999997 0.0
0.0 6.199999999999996 0.0
0.0 6.099999999999996 0.0
0.0 5.999999999999996 0.0
0.0 5.899999999999997 0.0
0.0 5.799999999999997 0.0
0.0 5.699999999999996 0.0
0.0 5.599999999999996 0.0
0.0 5.499999999999996 0.0
0.0 5.399999999999995 0.0
0.0 5.299999999999995 0.0
0.0 5.199999999999996 0.0
0.0 5.099999999999996 0.0
0.0 4.999999999999998 0.0
0.0 4.899999999999999 0.0
0.0 4.799999999999997 0.0
0.0 4.699999999999998 0.0
0.0 4.599999999999998 0.0
0.0 4.499999999999996 0.0
0.0 4.399999999999997 0.0
0.0 4.299999999999997 0.0
0.0 4.199999999999998 0.0
0.0 4.099999999999998 0.0
0.0 3.999999999999996 0.0
0.0 3.899999999999999 0.0
0.0 3.799999999999997 0.0
0.0 3.699999999999996 0.0
0.0 3.599999999999998 0.0
0.0 3.5 0.0
0.0 3.399999999999999 0.0
0.0 3.299999999999997 0.0
0.0 3.199999999999999 0.0
0.0 3.099999999999998 0.0
0.0 3.0 0.0
0.0 2.899999999999999 0.0
0.0 2.799999999999997 0.0
0.0 2.699999999999999 0.0
0.0 2.599999999999998 0.0
0.0 2.499999999999996 0.0
0.0 2.399999999999999 0.0
0.0 2.299999999999997 0.0
0.0 2.199999999999999 0.0
0.0 2.100000000000001 0.0
0.0 2.0 0.0
0.0 1.899999999999999 0.0
0.0 1.800000000000001 0.0
0.0 1.699999999999999 0.0
0.0 1.599999999999998 0.0
0.0 1.5 0.0
0.0 1.399999999999999 0.0
0.0 1.299999999999997 0.0
0.0 1.199999999999999 0.0
0.0 1.099999999999998 0.0
0.0 1.0 0.0
0.0 0.8999999999999986 0.0
0.0 0.8000000000000007 0.0
0.0 0.6999999999999993 0.0
0.0 0.6000000000000014 0.0
0.0 0.5 0.0
0.0 0.3999999999999986 0.0
0.0 0.3000000000000007 0.0
0.0 0.1999999999999993 0.0
[...]
POINT_DATA 804
VECTORS displacement double
0.0 0.0 0.0
0.0 0.0 0.0
0.0 -0.0017873133581191958 0.0
0.0 -0.0017873133581191782 0.0
0.0 0.0 0.0
0.0 0.0 0.0
0.0 -0.0017873133581191667 0.0
0.0 -0.0017873133581192083 0.0
0.0 1.69213210203929e-05 0.0
0.0 -5.935127436349919e-07 0.0
0.0 -2.8190747495726703e-05 0.0
0.0 -1.411545412744036e-05 0.0
0.0 4.060602409739112e-05 0.0
0.0 6.354499718045385e-05 0.0
0.0 -2.4602445393651457e-05 0.0
0.0 -0.00024661413372030906 0.0
0.0 -0.0005662698740980316 0.0
0.0 -0.0009191646767798823 0.0
0.0 -0.001238269837107639 0.0
0.0 -0.0014772020268847379 0.0
0.0 -0.0016287683251974623 0.0
0.0 -0.0017152020260158974 0.0
0.0 -0.0017599000073695473 0.0
0.0 -0.0017779151012637514 0.0
0.0 -0.001783378499535567 0.0
0.0 -0.0017865239549852022 0.0
0.0 -0.0017879551189003487 0.0
0.0 -0.0017869633519681158 0.0
0.0 -0.001786845020105683 0.0
0.0 -0.001787857787204145 0.0
0.0 -0.0017874185924559593 0.0
0.0 -0.0017868160808479931 0.0
0.0 -0.001787552948002394 0.0
0.0 -0.001787599170167849 0.0
0.0 -0.001786938249869995 0.0
0.0 -0.0017873528450564685 0.0
0.0 -0.0017876266995966571 0.0
0.0 -0.0017870660098051547 0.0
0.0 -0.0017872562419329052 0.0
0.0 -0.0017875944720665046 0.0
0.0 -0.0017871543100904373 0.0
0.0 -0.0017872250409181677 0.0
0.0 -0.001787550921118749 0.0
0.0 -0.0017872026654316578 0.0
0.0 -0.0017872281713541707 0.0
0.0 -0.001787512821246793 0.0
0.0 -0.001787222519711601 0.0
0.0 -0.0017872483129216978 0.0
0.0 -0.001787481675764781 0.0
0.0 -0.001787225473803207 0.0
0.0 -0.0017872774955786195 0.0
0.0 -0.0017874532865071796 0.0
0.0 -0.0017872212071835107 0.0
0.0 -0.001787311796187518 0.0
0.0 -0.00178742238712856 0.0
0.0 -0.0017872182172242424 0.0
0.0 -0.0017873474143246294 0.0
0.0 -0.0017873853054088782 0.0
0.0 -0.0017872242419972372 0.0
0.0 -0.0017873783699667118 0.0
0.0 -0.001787342243070696 0.0
0.0 -0.0017872450609188854 0.0
0.0 -0.0017873962481697193 0.0
0.0 -0.0017872991091103046 0.0
0.0 -0.0017872815400645599 0.0
0.0 -0.0017873927679772944 0.0
0.0 -0.001787267371678847 0.0
0.0 -0.0017873263438926844 0.0
0.0 -0.0017873652009427982 0.0
0.0 -0.001787259848296513 0.0
0.0 -0.0017873635798751114 0.0
0.0 -0.0017873222007548269 0.0
0.0 -0.0017872820937036972 0.0
0.0 -0.0017873750495076366 0.0
0.0 -0.0017872845359083842 0.0
0.0 -0.0017873236733112986 0.0
0.0 -0.0017873531027317298 0.0
0.0 -0.00178727526354099 0.0
0.0 -0.0017873583568561537 0.0
0.0 -0.0017873120504665878 0.0
0.0 -0.0017873012808883447 0.0
0.0 -0.0017873601516408383 0.0
0.0 -0.00178728415670472 0.0
0.0 -0.0017873409772771905 0.0
0.0 -0.0017873279035394373 0.0
0.0 -0.0017872941835337423 0.0
0.0 -0.0017873570847220213 0.0
0.0 -0.0017872936757563232 0.0
0.0 -0.0017873310295739484 0.0
0.0 -0.0017873334856375023 0.0
0.0 -0.0017872945791805198 0.0
0.0 -0.0017873524929086907 0.0
0.0 -0.0017872989987992706 0.0
0.0 -0.0017873281452711741 0.0
0.0 -0.001787332741533567 0.0
0.0 -0.0017872979648848176 0.0
0.0 -0.0017873489341619696 0.0
0.0 -0.0017873003409826478 0.0
0.0 -0.0017873301996344112 0.0
0.0 -0.0017873279942464927 0.0
0.0 -0.0017873033032271737 0.0
0.0 -0.0017873456310605021 0.0
0.0 -0.0017872997585479339 0.0
0.0 -0.0017873350375957047 0.0
0.0 -0.0017873203203191783 0.0
0.0 -0.001787311232405267 0.0
0.0 -0.0017873403582445266 0.0
0.0 -0.0017873002925370134 0.0
0.0 -0.0017873398722986203 0.0
0.0 -0.0017873112810534281 0.0
0.0 -0.0017873219888722837 0.0
0.0 -0.0017873310393845287 0.0
0.0 -0.001787305406632324 0.0
0.0 -0.0017873406504988192 0.0
0.0 -0.0017873045746957705 0.0
0.0 -0.0017873331237221177 0.0
0.0 -0.001787318197641569 0.0
0.0 -0.0017873168345223526 0.0
0.0 -0.001787333476391732 0.0
0.0 -0.0017873057152159773 0.0
0.0 -0.00178733845006383 0.0
0.0 -0.0017873074756257492 0.0
0.0 -0.001787330760912929 0.0
0.0 -0.001787319245428133 0.0
0.0 -0.0017873173703372878 0.0
0.0 -0.0017873317442292616 0.0
0.0 -0.0017873079070667873 0.0
0.0 -0.0017873367656556145 0.0
0.0 -0.0017873078761212317 0.0
0.0 -0.001787332142304953 0.0
0.0 -0.0017873161238102305 0.0
0.0 -0.0017873217848975505 0.0
0.0 -0.0017873269143771715 0.0
0.0 -0.0017873121629755691 0.0
0.0 -0.0017873340978461119 0.0
0.0 -0.0017873082472253123 0.0
0.0 -0.0017873344512267214 0.0
0.0 -0.0017873112718574614 0.0
0.0 -0.0017873286616379084 0.0
0.0 -0.001787318944674299 0.0
0.0 -0.001787320144983067 0.0
0.0 -0.001787327281730695 0.0
0.0 -0.0017873129071699116 0.0
0.0 -0.0017873327247172205 0.0
0.0 -0.0017873097104520476 0.0
0.0 -0.001787333513714204 0.0
0.0 -0.0017873112481045115 0.0
0.0 -0.0017873299614486991 0.0
0.0 -0.0017873163587818187 0.0
0.0 -0.0017873238574527312 0.0
0.0 -0.0017873228741483442 0.0
0.0 -0.0017873175010778123 0.0
0.0 -0.0017873285856594115 0.0
0.0 -0.0017873128310865723 0.0
0.0 -0.001787331951233024 0.0
0.0 -0.0017873109203444628 0.0
0.0 -0.001787332388760874 0.0
0.0 -0.0017873118822145954 0.0
0.0 -0.0017873301979554274 0.0
0.0 -0.0017873150823735627 0.0
0.0 -0.0017873262570978121 0.0
0.0 -0.0017873194919801596 0.0
0.0 -0.0017873216571520935 0.0
0.0 -0.0017873240357347826 0.0
0.0 -0.001787317394264766 0.0
0.0 -0.0017873278440635144 0.0
0.0 -0.0017873141802660323 0.0
0.0 -0.0017873303788619574 0.0
0.0 -0.0017873123768128232 0.0
0.0 -0.001787331446829768 0.0
0.0 -0.0017873120250900517 0.0
0.0 -0.001787331137137655 0.0
0.0 -0.0017873129304310997 0.0
0.0 -0.0017873297240741754 0.0
0.0 -0.00178731476412542 0.0
0.0 -0.0017873275675171394 0.0
0.0 -0.0017873171555679386 0.0
0.0 -0.0017873250316813958 0.0
0.0 -0.001787319760528098 0.0
0.0 -0.001787322430698428 0.0
0.0 -0.0017873223018367525 0.0
0.0 -0.0017873200008107152 0.0
0.0 -0.0017873245856694963 0.0
0.0 -0.0017873178939485685 0.0
0.0 -0.001787326499905829 0.0
0.0 -0.0017873161856393179 0.0
0.0 -0.0017873280016466892 0.0
0.0 -0.0017873148905362722 0.0
0.0 -0.0017873290999575742 0.0
0.0 -0.0017873139803109132 0.0
0.0 -0.0017873298382070511 0.0
0.0 -0.0017873134004317075 0.0
0.0 -0.0017873302786292308 0.0
0.0 -0.001787313083969753 0.0
0.0 -0.001787330490300743 0.0
0.0 -0.0017873129618006071 0.0
0.0 -0.0017873305407121736 0.0
0.0 -0.0017873129693700774 0.0
0.0 -0.001787330490512245 0.0
0.0 -0.0017873130506189266 0.0
0.0 -0.001787330390723727 0.0
0.0 -0.0017873131598172276 0.0
0.0 -0.0017873302816741757 0.0
0.0 -0.0017873132620415783 0.0
0.0 -0.0017873301929544057 0.0
0.0 -0.001787313332919269 0.0
0.0 -0.0017873301438513668 0.0
0.0 -0.0017873301438513566 0.0
0.0 -0.0017873133329192699 0.0
0.0 -0.0017873301929544048 0.0
0.0 -0.0017873132620415799 0.0
0.0 -0.0017873302816741794 0.0
0.0 -0.001787313159817226 0.0
0.0 -0.0017873303907237255 0.0
0.0 -0.001787313050618921 0.0
0.0 -0.0017873304905122404 0.0
0.0 -0.0017873129693700665 0.0
0.0 -0.001787330540712193 0.0
0.0 -0.0017873129618006017 0.0
0.0 -0.0017873304903007327 0.0
0.0 -0.0017873130839697465 0.0
0.0 -0.0017873302786292444 0.0
0.0 -0.0017873134004316945 0.0
0.0 -0.0017873298382070507 0.0
0.0 -0.0017873139803109114 0.0
0.0 -0.0017873290999575742 0.0
0.0 -0.0017873148905362677 0.0
0.0 -0.0017873280016467092 0.0
0.0 -0.0017873161856393229 0.0
0.0 -0.0017873264999058154 0.0
0.0 -0.001787317893948583 0.0
0.0 -0.0017873245856694874 0.0
0.0 -0.0017873200008107118 0.0
0.0 -0.001787322301836759 0.0
0.0 -0.0017873224306984223 0.0
0.0 -0.001787319760528084 0.0
0.0 -0.0017873250316814116 0.0
0.0 -0.0017873171555679555 0.0
0.0 -0.0017873275675171275 0.0
0.0 -0.0017873147641254195 0.0
0.0 -0.0017873297240741806 0.0
0.0 -0.0017873129304310903 0.0
0.0 -0.0017873311371376594 0.0
0.0 -0.0017873120250900523 0.0
0.0 -0.00178733144682978 0.0
0.0 -0.0017873123768128328 0.0
0.0 -0.0017873303788619643 0.0
0.0 -0.0017873141802660284 0.0
0.0 -0.0017873278440635285 0.0
0.0 -0.0017873173942647624 0.0
0.0 -0.0017873240357347711 0.0
0.0 -0.0017873216571520918 0.0
0.0 -0.0017873194919801512 0.0
0.0 -0.0017873262570978017 0.0
0.0 -0.0017873150823735605 0.0
0.0 -0.0017873301979554209 0.0
0.0 -0.0017873118822145902 0.0
0.0 -0.0017873323887608779 0.0
0.0 -0.0017873109203444667 0.0
0.0 -0.0017873319512330215 0.0
0.0 -0.0017873128310865877 0.0
0.0 -0.0017873285856594187 0.0
0.0 -0.001787317501077796 0.0
0.0 -0.0017873228741483451 0.0
0.0 -0.0017873238574527327 0.0
0.0 -0.0017873163587818139 0.0
0.0 -0.0017873299614487113 0.0
0.0 -0.0017873112481045167 0.0
0.0 -0.0017873335137141963 0.0
0.0 -0.001787309710452058 0.0
0.0 -0.0017873327247172098 0.0
0.0 -0.0017873129071699079 0.0
0.0 -0.001787327281730682 0.0
0.0 -0.0017873201449830755 0.0
0.0 -0.0017873189446743114 0.0
0.0 -0.001787328661637931 0.0
0.0 -0.0017873112718574638 0.0
0.0 -0.0017873344512267242 0.0
0.0 -0.0017873082472253327 0.0
0.0 -0.001787334097846115 0.0
0.0 -0.001787312162975569 0.0
0.0 -0.0017873269143771852 0.0
0.0 -0.001787321784897557 0.0
0.0 -0.0017873161238102344 0.0
0.0 -0.0017873321423049634 0.0
0.0 -0.0017873078761212417 0.0
0.0 -0.0017873367656556342 0.0
0.0 -0.001787307907066782 0.0
0.0 -0.0017873317442292588 0.0
0.0 -0.0017873173703372945 0.0
0.0 -0.0017873192454281263 0.0
0.0 -0.0017873307609129275 0.0
0.0 -0.001787307475625748 0.0
0.0 -0.0017873384500638363 0.0
0.0 -0.0017873057152159816 0.0
0.0 -0.0017873334763917148 0.0
0.0 -0.0017873168345223444 0.0
0.0 -0.0017873181976415823 0.0
0.0 -0.0017873331237221288 0.0
0.0 -0.001787304574695786 0.0
0.0 -0.001787340650498812 0.0
0.0 -0.0017873054066323162 0.0
0.0 -0.0017873310393845307 0.0
0.0 -0.0017873219888723058 0.0
0.0 -0.0017873112810534305 0.0
0.0 -0.0017873398722986103 0.0
0.0 -0.0017873002925369993 0.0
0.0 -0.0017873403582445262 0.0
0.0 -0.001787311232405281 0.0
0.0 -0.0017873203203191824 0.0
0.0 -0.0017873350375957162 0.0
0.0 -0.0017872997585479376 0.0
0.0 -0.001787345631060513 0.0
0.0 -0.0017873033032271785 0.0
0.0 -0.0017873279942464922 0.0
0.0 -0.0017873301996344107 0.0
0.0 -0.0017873003409826387 0.0
0.0 -0.0017873489341619785 0.0
0.0 -0.0017872979648848163 0.0
0.0 -0.001787332741533557 0.0
0.0 -0.0017873281452711826 0.0
0.0 -0.0017872989987992491 0.0
0.0 -0.0017873524929087046 0.0
0.0 -0.0017872945791805653 0.0
0.0 -0.001787333485637474 0.0
0.0 -0.001787331029573962 0.0
0.0 -0.00178729367575633 0.0
0.0 -0.0017873570847220274 0.0
0.0 -0.0017872941835337483 0.0
0.0 -0.0017873279035394392 0.0
0.0 -0.001787340977277207 0.0
0.0 -0.0017872841567047122 0.0
0.0 -0.0017873601516408385 0.0
0.0 -0.0017873012808883504 0.0
0.0 -0.0017873120504665748 0.0
0.0 -0.0017873583568561748 0.0
0.0 -0.0017872752635409907 0.0
0.0 -0.0017873531027317129 0.0
0.0 -0.0017873236733113092 0.0
0.0 -0.0017872845359083764 0.0
0.0 -0.0017873750495076247 0.0
0.0 -0.0017872820937037104 0.0
0.0 -0.0017873222007548188 0.0
0.0 -0.0017873635798751164 0.0
0.0 -0.001787259848296515 0.0
0.0 -0.0017873652009427663 0.0
0.0 -0.0017873263438926935 0.0
0.0 -0.001787267371678847 0.0
0.0 -0.00178739276797728 0.0
0.0 -0.0017872815400645566 0.0
0.0 -0.0017872991091102887 0.0
0.0 -0.0017873962481697286 0.0
0.0 -0.0017872450609189073 0.0
0.0 -0.0017873422430706783 0.0
0.0 -0.0017873783699667261 0.0
0.0 -0.0017872242419972363 0.0
0.0 -0.0017873853054088604 0.0
0.0 -0.0017873474143246595 0.0
0.0 -0.0017872182172242452 0.0
0.0 -0.0017874223871285472 0.0
0.0 -0.0017873117961875232 0.0
0.0 -0.0017872212071834948 0.0
0.0 -0.0017874532865071728 0.0
0.0 -0.0017872774955786494 0.0
0.0 -0.0017872254738031928 0.0
0.0 -0.0017874816757647786 0.0
0.0 -0.0017872483129217187 0.0
0.0 -0.0017872225197116064 0.0
0.0 -0.001787512821246791 0.0
0.0 -0.0017872281713542004 0.0
0.0 -0.0017872026654316528 0.0
0.0 -0.0017875509211187461 0.0
0.0 -0.0017872250409181893 0.0
0.0 -0.0017871543100904182 0.0
0.0 -0.0017875944720664892 0.0
0.0 -0.0017872562419329317 0.0
0.0 -0.0017870660098051434 0.0
0.0 -0.0017876266995966506 0.0
0.0 -0.0017873528450565027 0.0
0.0 -0.001786938249870002 0.0
0.0 -0.0017875991701678446 0.0
0.0 -0.0017875529480024046 0.0
0.0 -0.001786816080847992 0.0
0.0 -0.0017874185924559368 0.0
0.0 -0.0017878577872041685 0.0
0.0 -0.0017868450201056869 0.0
0.0 -0.0017869633519680946 0.0
0.0 -0.0017879551189003496 0.0
0.0 -0.0017865239549852217 0.0
0.0 -0.0017833784995356131 0.0
0.0 -0.0017779151012638828 0.0
0.0 -0.0017599000073699196 0.0
0.0 -0.0017152020260166674 0.0
0.0 -0.001628768325198771 0.0
0.0 -0.0014772020268867985 0.0
0.0 -0.001238269837110468 0.0
0.0 -0.0009191646767829907 0.0
0.0 -0.0005662698741007705 0.0
0.0 -0.00024661413372215095 0.0
0.0 -2.460244539448772e-05 0.0
0.0 6.354499718036943e-05 0.0
0.0 4.060602409758562e-05 0.0
0.0 -1.4115454127322665e-05 0.0
0.0 -2.819074749575903e-05 0.0
0.0 -5.935127436759612e-07 0.0
0.0 1.692132102039536e-05 0.0
0.0 1.6921321020395182e-05 0.0
0.0 -5.935127436320589e-07 0.0
0.0 -2.8190747495732107e-05 0.0
0.0 -1.411545412743802e-05 0.0
0.0 4.0606024097388985e-05 0.0
0.0 6.354499718045765e-05 0.0
0.0 -2.4602445393654195e-05 0.0
0.0 -0.0002466141337203044 0.0
0.0 -0.0005662698740980259 0.0
0.0 -0.0009191646767798768 0.0
0.0 -0.0012382698371076455 0.0
0.0 -0.001477202026884739 0.0
0.0 -0.0016287683251974708 0.0
0.0 -0.001715202026015916 0.0
0.0 -0.001759900007369544 0.0
0.0 -0.0017779151012637562 0.0
0.0 -0.0017833784995355557 0.0
0.0 -0.0017865239549851898 0.0
0.0 -0.0017879551189003426 0.0
0.0 -0.0017869633519681162 0.0
0.0 -0.0017868450201056752 0.0
0.0 -0.001787857787204158 0.0
0.0 -0.0017874185924559509 0.0
0.0 -0.0017868160808479957 0.0
0.0 -0.0017875529480023897 0.0
0.0 -0.0017875991701678513 0.0
0.0 -0.0017869382498700006 0.0
0.0 -0.0017873528450564765 0.0
0.0 -0.0017876266995966552 0.0
0.0 -0.0017870660098051507 0.0
0.0 -0.001787256241932911 0.0
0.0 -0.0017875944720665007 0.0
0.0 -0.0017871543100904436 0.0
0.0 -0.0017872250409181674 0.0
0.0 -0.0017875509211187554 0.0
0.0 -0.0017872026654316689 0.0
0.0 -0.0017872281713541779 0.0
0.0 -0.0017875128212467932 0.0
0.0 -0.0017872225197116268 0.0
0.0 -0.0017872483129217059 0.0
0.0 -0.001787481675764792 0.0
0.0 -0.0017872254738032147 0.0
0.0 -0.001787277495578636 0.0
0.0 -0.001787453286507183 0.0
0.0 -0.0017872212071835063 0.0
0.0 -0.0017873117961875013 0.0
0.0 -0.0017874223871285533 0.0
0.0 -0.0017872182172242498 0.0
0.0 -0.001787347414324644 0.0
0.0 -0.001787385305408877 0.0
0.0 -0.0017872242419972484 0.0
0.0 -0.0017873783699667138 0.0
0.0 -0.0017873422430707022 0.0
0.0 -0.001787245060918892 0.0
0.0 -0.001787396248169729 0.0
0.0 -0.0017872991091103083 0.0
0.0 -0.0017872815400645468 0.0
0.0 -0.0017873927679772925 0.0
0.0 -0.001787267371678847 0.0
0.0 -0.0017873263438926846 0.0
0.0 -0.0017873652009427875 0.0
0.0 -0.0017872598482964984 0.0
0.0 -0.001787363579875113 0.0
0.0 -0.0017873222007548414 0.0
0.0 -0.0017872820937037022 0.0
0.0 -0.0017873750495076284 0.0
0.0 -0.001787284535908384 0.0
0.0 -0.0017873236733112956 0.0
0.0 -0.0017873531027317092 0.0
0.0 -0.0017872752635409823 0.0
0.0 -0.001787358356856149 0.0
0.0 -0.0017873120504665763 0.0
0.0 -0.0017873012808883382 0.0
0.0 -0.0017873601516408362 0.0
0.0 -0.0017872841567047072 0.0
0.0 -0.0017873409772771805 0.0
0.0 -0.0017873279035394486 0.0
0.0 -0.0017872941835337455 0.0
0.0 -0.0017873570847220268 0.0
0.0 -0.0017872936757563351 0.0
0.0 -0.0017873310295739386 0.0
0.0 -0.0017873334856374904 0.0
0.0 -0.0017872945791805631 0.0
0.0 -0.0017873524929086994 0.0
0.0 -0.001787298998799266 0.0
0.0 -0.0017873281452711778 0.0
0.0 -0.001787332741533557 0.0
0.0 -0.0017872979648848209 0.0
0.0 -0.0017873489341619874 0.0
0.0 -0.00178730034098265 0.0
0.0 -0.001787330199634403 0.0
0.0 -0.0017873279942464942 0.0
0.0 -0.0017873033032271724 0.0
0.0 -0.0017873456310605162 0.0
0.0 -0.0017872997585479423 0.0
0.0 -0.0017873350375957095 0.0
0.0 -0.0017873203203191768 0.0
0.0 -0.0017873112324052717 0.0
0.0 -0.0017873403582445303 0.0
0.0 -0.0017873002925369963 0.0
0.0 -0.0017873398722986042 0.0
0.0 -0.0017873112810534294 0.0
0.0 -0.0017873219888722993 0.0
0.0 -0.001787331039384535 0.0
0.0 -0.001787305406632318 0.0
0.0 -0.0017873406504988133 0.0
0.0 -0.0017873045746957892 0.0
0.0 -0.0017873331237221123 0.0
0.0 -0.001787318197641585 0.0
0.0 -0.0017873168345223513 0.0
0.0 -0.0017873334763917222 0.0
0.0 -0.0017873057152159844 0.0
0.0 -0.001787338450063827 0.0
0.0 -0.0017873074756257486 0.0
0.0 -0.0017873307609129277 0.0
0.0 -0.0017873192454281382 0.0
0.0 -0.0017873173703373034 0.0
0.0 -0.0017873317442292625 0.0
0.0 -0.0017873079070667816 0.0
0.0 -0.0017873367656556407 0.0
0.0 -0.0017873078761212306 0.0
0.0 -0.0017873321423049632 0.0
0.0 -0.0017873161238102298 0.0
0.0 -0.0017873217848975549 0.0
0.0 -0.0017873269143771878 0.0
0.0 -0.001787312162975557 0.0
0.0 -0.0017873340978461123 0.0
0.0 -0.0017873082472253245 0.0
0.0 -0.0017873344512267194 0.0
0.0 -0.0017873112718574638 0.0
0.0 -0.0017873286616379295 0.0
0.0 -0.0017873189446742995 0.0
0.0 -0.0017873201449830679 0.0
0.0 -0.0017873272817306868 0.0
0.0 -0.0017873129071698964 0.0
0.0 -0.0017873327247172096 0.0
0.0 -0.0017873097104520643 0.0
0.0 -0.0017873335137141885 0.0
0.0 -0.0017873112481045117 0.0
0.0 -0.0017873299614486963 0.0
0.0 -0.0017873163587818098 0.0
0.0 -0.0017873238574527364 0.0
0.0 -0.0017873228741483596 0.0
0.0 -0.0017873175010778035 0.0
0.0 -0.0017873285856594243 0.0
0.0 -0.0017873128310865768 0.0
0.0 -0.0017873319512330143 0.0
0.0 -0.0017873109203444765 0.0
0.0 -0.0017873323887608865 0.0
0.0 -0.0017873118822145802 0.0
0.0 -0.0017873301979554244 0.0
0.0 -0.0017873150823735679 0.0
0.0 -0.0017873262570977989 0.0
0.0 -0.0017873194919801605 0.0
0.0 -0.0017873216571521013 0.0
0.0 -0.0017873240357347668 0.0
0.0 -0.0017873173942647557 0.0
0.0 -0.0017873278440635313 0.0
0.0 -0.001787314180266038 0.0
0.0 -0.001787330378861959 0.0
0.0 -0.0017873123768128375 0.0
0.0 -0.0017873314468297757 0.0
0.0 -0.001787312025090042 0.0
0.0 -0.0017873311371376611 0.0
0.0 -0.001787312930431093 0.0
0.0 -0.0017873297240741772 0.0
0.0 -0.0017873147641254276 0.0
0.0 -0.0017873275675171383 0.0
0.0 -0.0017873171555679492 0.0
0.0 -0.0017873250316814077 0.0
0.0 -0.00178731976052809 0.0
0.0 -0.00178732243069843 0.0
0.0 -0.0017873223018367715 0.0
0.0 -0.001787320000810714 0.0
0.0 -0.0017873245856694932 0.0
0.0 -0.0017873178939485854 0.0
0.0 -0.0017873264999058104 0.0
0.0 -0.0017873161856393305 0.0
0.0 -0.0017873280016466933 0.0
0.0 -0.0017873148905362608 0.0
0.0 -0.0017873290999575666 0.0
0.0 -0.0017873139803109082 0.0
0.0 -0.0017873298382070587 0.0
0.0 -0.0017873134004316965 0.0
0.0 -0.001787330278629233 0.0
0.0 -0.0017873130839697513 0.0
0.0 -0.001787330490300738 0.0
0.0 -0.0017873129618006058 0.0
0.0 -0.0017873305407121922 0.0
0.0 -0.0017873129693700722 0.0
0.0 -0.001787330490512241 0.0
0.0 -0.0017873130506189166 0.0
0.0 -0.0017873303907237294 0.0
0.0 -0.0017873131598172276 0.0
0.0 -0.0017873302816741982 0.0
0.0 -0.0017873132620415753 0.0
0.0 -0.0017873301929544156 0.0
0.0 -0.0017873133329192686 0.0
0.0 -0.0017873301438513648 0.0
0.0 -0.0017873301438513655 0.0
0.0 -0.001787313332919272 0.0
0.0 -0.001787330192954407 0.0
0.0 -0.0017873132620415705 0.0
0.0 -0.0017873302816741774 0.0
0.0 -0.001787313159817233 0.0
0.0 -0.0017873303907237205 0.0
0.0 -0.0017873130506189145 0.0
0.0 -0.0017873304905122352 0.0
0.0 -0.0017873129693700804 0.0
0.0 -0.0017873305407121837 0.0
0.0 -0.001787312961800608 0.0
0.0 -0.0017873304903007398 0.0
0.0 -0.0017873130839697559 0.0
0.0 -0.0017873302786292342 0.0
0.0 -0.001787313400431705 0.0
0.0 -0.001787329838207032 0.0
0.0 -0.0017873139803109106 0.0
0.0 -0.0017873290999575833 0.0
0.0 -0.0017873148905362722 0.0
0.0 -0.001787328001646681 0.0
0.0 -0.0017873161856393175 0.0
0.0 -0.0017873264999058226 0.0
0.0 -0.0017873178939485747 0.0
0.0 -0.0017873245856694904 0.0
0.0 -0.0017873200008107157 0.0
0.0 -0.001787322301836752 0.0
0.0 -0.0017873224306984424 0.0
0.0 -0.0017873197605281 0.0
0.0 -0.0017873250316813995 0.0
0.0 -0.0017873171555679533 0.0
0.0 -0.0017873275675171472 0.0
0.0 -0.0017873147641254317 0.0
0.0 -0.0017873297240741694 0.0
0.0 -0.001787312930431103 0.0
0.0 -0.0017873311371376646 0.0
0.0 -0.0017873120250900508 0.0
0.0 -0.0017873314468297725 0.0
0.0 -0.0017873123768128336 0.0
0.0 -0.001787330378861955 0.0
0.0 -0.0017873141802660412 0.0
0.0 -0.0017873278440635146 0.0
0.0 -0.0017873173942647693 0.0
0.0 -0.0017873240357347798 0.0
0.0 -0.0017873216571520929 0.0