# vtk DataFile Version 2.0
data_36
ASCII
DATASET UNSTRUCTURED_GRID
POINTS 804 float
0.0 0.0 0.0
0.1 0.0 0.0
0.1 20.0 0.0
0.0 20.0 0.0
0.0 0.0 -0.1
0.1 0.0 -0.1
0.1 20.0 -0.1
0.0 20.0 -0.1
0.1 0.09999999999992462 0.0
0.1 0.1999999999998517 0.0
0.1 0.2999999999997818 0.0
0.1 0.399999999999712 0.0
0.1 0.4999999999996377 0.0
0.1 0.5999999999995541 0.0
0.1 0.6999999999994495 0.0
0.1 0.7999999999993355 0.0
0.1 0.8999999999992101 0.0
0.1 0.999999999999102 0.0
0.1 1.099999999999006 0.0
0.1 1.199999999998936 0.0
0.1 1.299999999998867 0.0
0.1 1.399999999998797 0.0
0.1 1.499999999998727 0.0
0.1 1.599999999998657 0.0
0.1 1.699999999998587 0.0
0.1 1.799999999998517 0.0
0.1 1.899999999998447 0.0
0.1 1.999999999998378 0.0
0.1 2.099999999998308 0.0
0.1 2.199999999998238 0.0
0.1 2.299999999998168 0.0
0.1 2.399999999998067 0.0
0.1 2.499999999997942 0.0
0.1 2.599999999997706 0.0
0.1 2.699999999997444 0.0
0.1 2.799999999997153 0.0
0.1 2.899999999996861 0.0
0.1 2.999999999996569 0.0
0.1 3.099999999996277 0.0
0.1 3.199999999995984 0.0
0.1 3.299999999995693 0.0
0.1 3.399999999995401 0.0
0.1 3.499999999995108 0.0
0.1 3.599999999994816 0.0
0.1 3.699999999994525 0.0
0.1 3.799999999994232 0.0
0.1 3.89999999999394 0.0
0.1 3.999999999993648 0.0
0.1 4.099999999993356 0.0
0.1 4.199999999993064 0.0
0.1 4.299999999992772 0.0
0.1 4.399999999992479 0.0
0.1 4.499999999992188 0.0
0.1 4.599999999991895 0.0
0.1 4.699999999991603 0.0
0.1 4.799999999991311 0.0
0.1 4.899999999991019 0.0
0.1 4.999999999990727 0.0
0.1 5.099999999990436 0.0
0.1 5.199999999990144 0.0
0.1 5.299999999989851 0.0
0.1 5.399999999989559 0.0
0.1 5.499999999989267 0.0
0.1 5.599999999988975 0.0
0.1 5.699999999988683 0.0
0.1 5.799999999988391 0.0
0.1 5.899999999988099 0.0
0.1 5.999999999987806 0.0
0.1 6.099999999987515 0.0
0.1 6.199999999987222 0.0
0.1 6.299999999986929 0.0
0.1 6.399999999986638 0.0
0.1 6.499999999986345 0.0
0.1 6.599999999986054 0.0
0.1 6.699999999985762 0.0
0.1 6.79999999998547 0.0
0.1 6.899999999985177 0.0
0.1 6.999999999984885 0.0
0.1 7.099999999984593 0.0
0.1 7.199999999984302 0.0
0.1 7.299999999984009 0.0
0.1 7.399999999983717 0.0
0.1 7.499999999983426 0.0
0.1 7.599999999983132 0.0
0.1 7.699999999982841 0.0
0.1 7.799999999982549 0.0
0.1 7.899999999982256 0.0
0.1 7.999999999982034 0.0
0.1 8.099999999981964 0.0
0.1 8.199999999982062 0.0
0.1 8.299999999982214 0.0
0.1 8.399999999982366 0.0
0.1 8.499999999982517 0.0
0.1 8.59999999998267 0.0
0.1 8.699999999982822 0.0
0.1 8.799999999982973 0.0
0.1 8.899999999983125 0.0
0.1 8.999999999983277 0.0
0.1 9.09999999998343 0.0
0.1 9.19999999998358 0.0
0.1 9.299999999983733 0.0
0.1 9.399999999983885 0.0
0.1 9.499999999984038 0.0
0.1 9.599999999984188 0.0
0.1 9.69999999998434 0.0
0.1 9.799999999984493 0.0
0.1 9.899999999984646 0.0
0.1 9.999999999984798 0.0
0.1 10.09999999998495 0.0
0.1 10.1999999999851 0.0
0.1 10.29999999998525 0.0
0.1 10.39999999998541 0.0
0.1 10.49999999998556 0.0
0.1 10.59999999998571 0.0
0.1 10.69999999998586 0.0
0.1 10.79999999998601 0.0
0.1 10.89999999998616 0.0
0.1 10.99999999998632 0.0
0.1 11.09999999998647 0.0
0.1 11.19999999998662 0.0
0.1 11.29999999998677 0.0
0.1 11.39999999998693 0.0
0.1 11.49999999998708 0.0
0.1 11.59999999998723 0.0
0.1 11.69999999998738 0.0
0.1 11.79999999998754 0.0
0.1 11.89999999998769 0.0
0.1 11.99999999998784 0.0
0.1 12.09999999998799 0.0
0.1 12.19999999998814 0.0
0.1 12.2999999999883 0.0
0.1 12.39999999998845 0.0
0.1 12.4999999999886 0.0
0.1 12.59999999998875 0.0
0.1 12.6999999999889 0.0
0.1 12.79999999998905 0.0
0.1 12.89999999998921 0.0
0.1 12.99999999998936 0.0
0.1 13.09999999998951 0.0
0.1 13.19999999998966 0.0
0.1 13.29999999998982 0.0
0.1 13.39999999998997 0.0
0.1 13.49999999999012 0.0
0.1 13.59999999999027 0.0
0.1 13.69999999999042 0.0
0.1 13.79999999999057 0.0
0.1 13.89999999999073 0.0
0.1 13.99999999999088 0.0
0.1 14.09999999999103 0.0
0.1 14.19999999999118 0.0
0.1 14.29999999999134 0.0
0.1 14.39999999999149 0.0
0.1 14.49999999999164 0.0
0.1 14.59999999999179 0.0
0.1 14.69999999999194 0.0
0.1 14.7999999999921 0.0
0.1 14.89999999999225 0.0
0.1 14.9999999999924 0.0
0.1 15.09999999999255 0.0
0.1 15.1999999999927 0.0
0.1 15.29999999999285 0.0
0.1 15.39999999999301 0.0
0.1 15.49999999999316 0.0
0.1 15.59999999999331 0.0
0.1 15.69999999999346 0.0
0.1 15.79999999999362 0.0
0.1 15.89999999999377 0.0
0.1 15.99999999999392 0.0
0.1 16.09999999999407 0.0
0.1 16.19999999999422 0.0
0.1 16.29999999999437 0.0
0.1 16.39999999999453 0.0
0.1 16.49999999999468 0.0
0.1 16.59999999999483 0.0
0.1 16.69999999999498 0.0
0.1 16.79999999999514 0.0
0.1 16.89999999999528 0.0
0.1 16.99999999999544 0.0
0.1 17.09999999999559 0.0
0.1 17.19999999999574 0.0
0.1 17.29999999999589 0.0
0.1 17.39999999999605 0.0
0.1 17.4999999999962 0.0
0.1 17.59999999999635 0.0
0.1 17.6999999999965 0.0
0.1 17.79999999999665 0.0
0.1 17.89999999999681 0.0
0.1 17.99999999999696 0.0
0.1 18.09999999999711 0.0
0.1 18.19999999999726 0.0
0.1 18.29999999999742 0.0
0.1 18.39999999999757 0.0
0.1 18.49999999999772 0.0
0.1 18.59999999999787 0.0
0.1 18.69999999999802 0.0
0.1 18.79999999999818 0.0
0.1 18.89999999999833 0.0
0.1 18.99999999999848 0.0
0.1 19.09999999999863 0.0
0.1 19.19999999999878 0.0
0.1 19.29999999999894 0.0
0.1 19.39999999999909 0.0
0.1 19.49999999999924 0.0
0.1 19.59999999999939 0.0
0.1 19.69999999999955 0.0
0.1 19.7999999999997 0.0
0.1 19.89999999999985 0.0
0.0 19.9 0.0
0.0 19.8 0.0
0.0 19.7 0.0
0.0 19.6 0.0
0.0 19.5 0.0
0.0 19.4 0.0
0.0 19.3 0.0
0.0 19.2 0.0
0.0 19.1 0.0
0.0 19.0 0.0
0.0 18.9 0.0
0.0 18.8 0.0
0.0 18.7 0.0
0.0 18.6 0.0
0.0 18.5 0.0
0.0 18.4 0.0
0.0 18.3 0.0
0.0 18.2 0.0
0.0 18.1 0.0
0.0 18.0 0.0
0.0 17.9 0.0
0.0 17.8 0.0
0.0 17.7 0.0
0.0 17.6 0.0
0.0 17.5 0.0
0.0 17.4 0.0
0.0 17.3 0.0
0.0 17.2 0.0
0.0 17.09999999999999 0.0
0.0 17.0 0.0
0.0 16.9 0.0
0.0 16.8 0.0
0.0 16.7 0.0
0.0 16.59999999999999 0.0
0.0 16.49999999999999 0.0
0.0 16.4 0.0
0.0 16.29999999999999 0.0
0.0 16.2 0.0
0.0 16.09999999999999 0.0
0.0 15.99999999999999 0.0
0.0 15.89999999999999 0.0
0.0 15.79999999999999 0.0
0.0 15.69999999999999 0.0
0.0 15.59999999999999 0.0
0.0 15.49999999999999 0.0
0.0 15.39999999999999 0.0
0.0 15.29999999999999 0.0
0.0 15.19999999999999 0.0
0.0 15.09999999999999 0.0
0.0 14.99999999999999 0.0
0.0 14.89999999999999 0.0
0.0 14.79999999999999 0.0
0.0 14.69999999999999 0.0
0.0 14.59999999999999 0.0
0.0 14.49999999999999 0.0
0.0 14.39999999999999 0.0
0.0 14.29999999999999 0.0
0.0 14.19999999999999 0.0
0.0 14.09999999999999 0.0
0.0 13.99999999999999 0.0
0.0 13.89999999999999 0.0
0.0 13.79999999999999 0.0
0.0 13.69999999999999 0.0
0.0 13.59999999999999 0.0
0.0 13.49999999999999 0.0
0.0 13.39999999999999 0.0
0.0 13.29999999999999 0.0
0.0 13.19999999999999 0.0
0.0 13.09999999999999 0.0
0.0 12.99999999999999 0.0
0.0 12.89999999999999 0.0
0.0 12.79999999999999 0.0
0.0 12.69999999999999 0.0
0.0 12.59999999999999 0.0
0.0 12.49999999999999 0.0
0.0 12.39999999999999 0.0
0.0 12.29999999999999 0.0
0.0 12.19999999999999 0.0
0.0 12.09999999999999 0.0
0.0 11.99999999999999 0.0
0.0 11.89999999999999 0.0
0.0 11.79999999999999 0.0
0.0 11.69999999999999 0.0
0.0 11.59999999999999 0.0
0.0 11.49999999999999 0.0
0.0 11.39999999999999 0.0
0.0 11.29999999999999 0.0
0.0 11.19999999999999 0.0
0.0 11.09999999999999 0.0
0.0 10.99999999999999 0.0
0.0 10.89999999999999 0.0
0.0 10.79999999999999 0.0
0.0 10.69999999999999 0.0
0.0 10.59999999999999 0.0
0.0 10.49999999999999 0.0
0.0 10.39999999999999 0.0
0.0 10.29999999999999 0.0
0.0 10.19999999999999 0.0
0.0 10.09999999999999 0.0
0.0 9.999999999999993 0.0
0.0 9.899999999999993 0.0
0.0 9.799999999999994 0.0
0.0 9.699999999999992 0.0
0.0 9.599999999999993 0.0
0.0 9.499999999999993 0.0
0.0 9.399999999999993 0.0
0.0 9.299999999999995 0.0
0.0 9.199999999999996 0.0
0.0 9.099999999999994 0.0
0.0 8.999999999999995 0.0
0.0 8.899999999999995 0.0
0.0 8.799999999999994 0.0
0.0 8.699999999999994 0.0
0.0 8.599999999999994 0.0
0.0 8.499999999999995 0.0
0.0 8.399999999999995 0.0
0.0 8.299999999999994 0.0
0.0 8.199999999999994 0.0
0.0 8.099999999999994 0.0
0.0 7.999999999999993 0.0
0.0 7.899999999999995 0.0
0.0 7.799999999999995 0.0
0.0 7.699999999999996 0.0
0.0 7.599999999999996 0.0
0.0 7.499999999999996 0.0
0.0 7.399999999999995 0.0
0.0 7.299999999999995 0.0
0.0 7.199999999999996 0.0
0.0 7.099999999999994 0.0
0.0 6.999999999999995 0.0
0.0 6.899999999999995 0.0
0.0 6.799999999999995 0.0
0.0 6.699999999999996 0.0
0.0 6.599999999999994 0.0
0.0 6.499999999999995 0.0
0.0 6.399999999999997 0.0
0.0 6.299999999999997 0.0
0.0 6.199999999999996 0.0
0.0 6.099999999999996 0.0
0.0 5.999999999999996 0.0
0.0 5.899999999999997 0.0
0.0 5.799999999999997 0.0
0.0 5.699999999999996 0.0
0.0 5.599999999999996 0.0
0.0 5.499999999999996 0.0
0.0 5.399999999999995 0.0
0.0 5.299999999999995 0.0
0.0 5.199999999999996 0.0
0.0 5.099999999999996 0.0
0.0 4.999999999999998 0.0
0.0 4.899999999999999 0.0
0.0 4.799999999999997 0.0
0.0 4.699999999999998 0.0
0.0 4.599999999999998 0.0
0.0 4.499999999999996 0.0
0.0 4.399999999999997 0.0
0.0 4.299999999999997 0.0
0.0 4.199999999999998 0.0
0.0 4.099999999999998 0.0
0.0 3.999999999999996 0.0
0.0 3.899999999999999 0.0
0.0 3.799999999999997 0.0
0.0 3.699999999999996 0.0
0.0 3.599999999999998 0.0
0.0 3.5 0.0
0.0 3.399999999999999 0.0
0.0 3.299999999999997 0.0
0.0 3.199999999999999 0.0
0.0 3.099999999999998 0.0
0.0 3.0 0.0
0.0 2.899999999999999 0.0
0.0 2.799999999999997 0.0
0.0 2.699999999999999 0.0
0.0 2.599999999999998 0.0
0.0 2.499999999999996 0.0
0.0 2.399999999999999 0.0
0.0 2.299999999999997 0.0
0.0 2.199999999999999 0.0
0.0 2.100000000000001 0.0
0.0 2.0 0.0
0.0 1.899999999999999 0.0
0.0 1.800000000000001 0.0
0.0 1.699999999999999 0.0
0.0 1.599999999999998 0.0
0.0 1.5 0.0
0.0 1.399999999999999 0.0
0.0 1.299999999999997 0.0
0.0 1.199999999999999 0.0
0.0 1.099999999999998 0.0
0.0 1.0 0.0
0.0 0.8999999999999986 0.0
0.0 0.8000000000000007 0.0
0.0 0.6999999999999993 0.0
0.0 0.6000000000000014 0.0
0.0 0.5 0.0
0.0 0.3999999999999986 0.0
0.0 0.3000000000000007 0.0
0.0 0.1999999999999993 0.0
[...]
POINT_DATA 804
VECTORS displacement double
0.0 0.0 0.0
0.0 0.0 0.0
0.0 -0.001774249204873995 0.0
0.0 -0.0017742492048740135 0.0
0.0 0.0 0.0
0.0 0.0 0.0
0.0 -0.0017742492048739814 0.0
0.0 -0.0017742492048740104 0.0
0.0 -6.7819570510366405e-149 0.0
0.0 4.4472785162323286e-148 0.0
0.0 -2.845020571625625e-147 0.0
0.0 1.8166093488246624e-146 0.0
0.0 -1.1584037427838935e-145 0.0
0.0 7.377088277700851e-145 0.0
0.0 -4.691751691941822e-144 0.0
0.0 2.979943440614995e-143 0.0
0.0 -1.8901733899260168e-142 0.0
0.0 1.1973283476757266e-141 0.0
0.0 -7.574255988325729e-141 0.0
0.0 4.78496331725247e-140 0.0
0.0 -3.018740105268398e-139 0.0
0.0 1.901855905821599e-138 0.0
0.0 -1.1965484873496373e-137 0.0
0.0 7.517606318510454e-137 0.0
0.0 -4.716512178533049e-136 0.0
0.0 2.9549471041408344e-135 0.0
0.0 -1.8486761652367698e-134 0.0
0.0 1.1549125702414723e-133 0.0
0.0 -7.204585672395518e-133 0.0
0.0 4.487813394576619e-132 0.0
0.0 -2.7913894575934186e-131 0.0
0.0 1.7336429749696798e-130 0.0
0.0 -1.0750927683759788e-129 0.0
0.0 6.656906479250595e-129 0.0
0.0 -4.1155902579391417e-128 0.0
0.0 2.5404907038077674e-127 0.0
0.0 -1.5657458109631038e-126 0.0
0.0 9.63463248455858e-126 0.0
0.0 -5.919037319429013e-125 0.0
0.0 3.6304504894302116e-124 0.0
0.0 -2.223077743260149e-123 0.0
0.0 1.3590152695823787e-122 0.0
0.0 -8.293925163612619e-122 0.0
0.0 5.05303354517194e-121 0.0
0.0 -3.0731970064136302e-120 0.0
0.0 1.8657965047161082e-119 0.0
0.0 -1.1307404724530998e-118 0.0
0.0 6.840299873153668e-118 0.0
0.0 -4.13037275132372e-117 0.0
0.0 2.4893915089189282e-116 0.0
0.0 -1.4975265680193882e-115 0.0
0.0 8.991255201207652e-115 0.0
0.0 -5.387870997024713e-114 0.0
0.0 3.222190899169047e-113 0.0
0.0 -1.9231280093061964e-112 0.0
0.0 1.1454419302377794e-111 0.0
0.0 -6.808171315655835e-111 0.0
0.0 4.0379819034605085e-110 0.0
0.0 -2.38978113081482e-109 0.0
0.0 1.4112192358219228e-108 0.0
0.0 -8.314870869672103e-108 0.0
0.0 4.887902607149765e-107 0.0
0.0 -2.866660053014049e-106 0.0
0.0 1.677244091013451e-105 0.0
0.0 -9.789527730746e-105 0.0
0.0 5.699682752134275e-104 0.0
0.0 -3.3100932348276507e-103 0.0
0.0 1.9173724843859993e-102 0.0
0.0 -1.1077060243088676e-101 0.0
0.0 6.382167513448174e-101 0.0
0.0 -3.6669939541182734e-100 0.0
0.0 2.1009796247327266e-99 0.0
0.0 -1.2002537136933573e-98 0.0
0.0 6.836475158733009e-98 0.0
0.0 -3.882094779950812e-97 0.0
0.0 2.197554812552939e-96 0.0
0.0 -1.2399839000113444e-95 0.0
0.0 6.973585282064083e-95 0.0
0.0 -3.908577108254529e-94 0.0
0.0 2.183031966521441e-93 0.0
0.0 -1.2148819972849867e-92 0.0
0.0 6.735838158304225e-92 0.0
0.0 -3.720323549275015e-91 0.0
0.0 2.046661942806656e-90 0.0
0.0 -1.1213194706671109e-89 0.0
0.0 6.1174239941455225e-89 0.0
0.0 -3.322756582131621e-88 0.0
0.0 1.796597467601014e-87 0.0
0.0 -9.66839172078471e-87 0.0
0.0 5.177689284508683e-86 0.0
0.0 -2.758817015352096e-85 0.0
0.0 1.4623260246281563e-84 0.0
0.0 -7.709667571914607e-84 0.0
0.0 4.042461397913976e-83 0.0
0.0 -2.107882353430324e-82 0.0
0.0 1.0930660226803216e-81 0.0
0.0 -5.637875730521086e-81 0.0
0.0 2.8934538241874546e-80 0.0
0.0 -1.4786095798578234e-79 0.0
0.0 7.532481998734672e-79 0.0
0.0 -3.8324656892774176e-78 0.0
0.0 1.952924193715672e-77 0.0
0.0 -1.000651121852044e-76 0.0
0.0 5.182881858353389e-76 0.0
0.0 -2.7313325283857055e-75 0.0
0.0 1.4749004859946098e-74 0.0
0.0 -8.21317050047391e-74 0.0
0.0 4.735891446795633e-73 0.0
0.0 -2.8292695799651987e-72 0.0
0.0 1.7455501778117246e-71 0.0
0.0 -1.1055288304271028e-70 0.0
0.0 7.13607653020324e-70 0.0
0.0 -4.661909662843351e-69 0.0
0.0 3.0640727731810434e-68 0.0
0.0 -2.0167389562851074e-67 0.0
0.0 1.3247413625152308e-66 0.0
0.0 -8.663383054808387e-66 0.0
0.0 5.630935827809109e-65 0.0
0.0 -3.633232340723156e-64 0.0
0.0 2.3251719433485327e-63 0.0
0.0 -1.4749888516552558e-62 0.0
0.0 9.269815144532027e-62 0.0
0.0 -5.7690848313030526e-61 0.0
0.0 3.5539446666188897e-60 0.0
0.0 -2.166173177684187e-59 0.0
0.0 1.305726684734011e-58 0.0
0.0 -7.779740463467919e-58 0.0
0.0 4.579113883970397e-57 0.0
0.0 -2.6608319716521785e-56 0.0
0.0 1.5252824102911903e-55 0.0
0.0 -8.618227326312611e-55 0.0
0.0 4.795634748868199e-54 0.0
0.0 -2.62659611983837e-53 0.0
0.0 1.4177699983966412e-52 0.0
0.0 -7.613512779272082e-52 0.0
0.0 4.242648845338493e-51 0.0
0.0 -2.8232628476698027e-50 0.0
0.0 2.8491013347418583e-49 0.0
0.0 -4.4264983072994455e-48 0.0
0.0 8.365089173506938e-47 0.0
0.0 -1.652180352881405e-45 0.0
0.0 3.249854550991348e-44 0.0
0.0 -6.286085632303768e-43 0.0
0.0 1.1910813024390248e-41 0.0
0.0 -2.206554056975937e-40 0.0
0.0 3.990185841505184e-39 0.0
0.0 -7.031198544340118e-38 0.0
0.0 1.2049946856518695e-36 0.0
0.0 -2.0040264896261748e-35 0.0
0.0 3.2261031096389057e-34 0.0
0.0 -5.012036834008556e-33 0.0
0.0 7.488087945085006e-32 0.0
0.0 -1.0712242997746803e-30 0.0
0.0 1.459561999888955e-29 0.0
0.0 -1.8811539501870639e-28 0.0
0.0 2.2725637402091964e-27 0.0
0.0 -2.5403261384628266e-26 0.0
0.0 2.5760515367184422e-25 0.0
0.0 -2.2899731662318053e-24 0.0
0.0 1.65883668897152e-23 0.0
0.0 -7.707527699167678e-23 0.0
0.0 -1.628876397139797e-22 0.0
0.0 8.58310159263202e-21 0.0
0.0 -1.0780668513824506e-19 0.0
0.0 7.72966149370244e-19 0.0
0.0 -1.5473503957386814e-18 0.0
0.0 -3.8915737581988393e-17 0.0
0.0 5.34037134667909e-16 0.0
0.0 -2.5881477263336097e-15 0.0
0.0 -1.3112639282317954e-14 0.0
0.0 2.76620344517298e-13 0.0
0.0 -1.0893804104336818e-12 0.0
0.0 -1.0716768449002068e-11 0.0
0.0 1.152473718792516e-10 0.0
0.0 2.1146568033382167e-10 0.0
0.0 -6.726037914476528e-09 0.0
0.0 -5.773577268015898e-09 0.0
0.0 3.232267636523153e-07 0.0
0.0 1.0060491414262516e-06 0.0
0.0 -9.62384460097061e-06 0.0
0.0 -9.470564245488767e-05 0.0
0.0 -0.000398871980194213 0.0
0.0 -0.0010132123551865437 0.0
0.0 -0.0016849432599465813 0.0
0.0 -0.001932000893403156 0.0
0.0 -0.0017658585852768144 0.0
0.0 -0.001723540434221254 0.0
0.0 -0.0018426279765998523 0.0
0.0 -0.0017856528778183798 0.0
0.0 -0.0017563849713013115 0.0
0.0 -0.0018248632987201841 0.0
0.0 -0.0017693140244335105 0.0
0.0 -0.0017866815146277944 0.0
0.0 -0.0018058515331118487 0.0
0.0 -0.0017657184997036928 0.0
0.0 -0.00180951722325598 0.0
0.0 -0.001774474580348064 0.0
0.0 -0.0017947651364568558 0.0
0.0 -0.0017900448008731473 0.0
0.0 -0.0017814566455986154 0.0
0.0 -0.0017998662884513702 0.0
0.0 -0.001775116508601125 0.0
0.0 -0.0018033599103861083 0.0
0.0 -0.0017736339607918267 0.0
0.0 -0.0018036218657329496 0.0
0.0 -0.0017739560023593956 0.0
0.0 -0.0018031714379091476 0.0
0.0 -0.0018031714379091136 0.0
0.0 -0.001773956002359435 0.0
0.0 -0.0018036218657329483 0.0
0.0 -0.0017736339607918184 0.0
0.0 -0.0018033599103861103 0.0
0.0 -0.001775116508601137 0.0
0.0 -0.0017998662884513093 0.0
0.0 -0.0017814566455987891 0.0
0.0 -0.001790044800872894 0.0
0.0 -0.001794765136457153 0.0
0.0 -0.0017744745803477725 0.0
0.0 -0.0018095172232561378 0.0
0.0 -0.001765718499703864 0.0
0.0 -0.0018058515331112132 0.0
0.0 -0.00178668151462885 0.0
0.0 -0.0017693140244324887 0.0
0.0 -0.0018248632987203654 0.0
0.0 -0.001756384971302681 0.0
0.0 -0.0017856528778158 0.0
0.0 -0.0018426279766012813 0.0
0.0 -0.0017235404342241128 0.0
0.0 -0.0017658585852710178 0.0
0.0 -0.001932000893402219 0.0
0.0 -0.0016849432599653547 0.0
0.0 -0.0010132123552138628 0.0
0.0 -0.00039887198021269554 0.0
0.0 -9.470564246184158e-05 0.0
0.0 -9.62384460226692e-06 0.0
0.0 1.0060491414118713e-06 0.0
0.0 3.2322676368876444e-07 0.0
0.0 -5.773577265326943e-09 0.0
0.0 -6.726037915318846e-09 0.0
0.0 2.1146568028376452e-10 0.0
0.0 1.1524737189946332e-10 0.0
0.0 -1.0716768449313009e-11 0.0
0.0 -1.0893804107983723e-12 0.0
0.0 2.766203445604869e-13 0.0
0.0 -1.3112639280904488e-14 0.0
0.0 -2.5881477272601647e-15 0.0
0.0 5.340371347770414e-16 0.0
0.0 -3.891573758385678e-17 0.0
0.0 -1.5473503971370549e-18 0.0
0.0 7.729661496379335e-19 0.0
0.0 -1.0780668516537774e-19 0.0
0.0 8.583101593798195e-21 0.0
0.0 -1.628876395545895e-22 0.0
0.0 -7.707527703923715e-23 0.0
0.0 1.6588366897172217e-23 0.0
0.0 -2.289973167141584e-24 0.0
0.0 2.576051537664325e-25 0.0
0.0 -2.540326139331037e-26 0.0
0.0 2.2725637409336393e-27 0.0
0.0 -1.8811539507946687e-28 0.0
0.0 1.459562000599585e-29 0.0
0.0 -1.0712243012063258e-30 0.0
0.0 7.488087980644286e-32 0.0
0.0 -5.012036918885166e-33 0.0
0.0 3.2261032934156353e-34 0.0
0.0 -2.0040268460764138e-35 0.0
0.0 1.204995291151722e-36 0.0
0.0 -7.031206906866437e-38 0.0
0.0 3.990192430694642e-39 0.0
0.0 -2.2065432595273e-40 0.0
0.0 1.1910079671215177e-41 0.0
0.0 -6.283581462968317e-43 0.0
0.0 3.2428992484404347e-44 0.0
0.0 -1.634851021063324e-45 0.0
0.0 7.962816297089538e-47 0.0
0.0 -3.539742332454158e-48 0.0
0.0 9.721060075660798e-50 0.0
0.0 1.0192470313316603e-50 0.0
0.0 -3.403068837037449e-51 0.0
0.0 7.227011561228887e-52 0.0
0.0 -1.400007857872984e-52 0.0
0.0 2.6182429065906473e-53 0.0
0.0 -4.7913896670068403e-54 0.0
0.0 8.615741944624907e-55 0.0
0.0 -1.5251250629630337e-55 0.0
0.0 2.660778025054418e-56 0.0
0.0 -4.5792744655171267e-57 0.0
0.0 7.780372304137018e-58 0.0
0.0 -1.3058870901533481e-58 0.0
0.0 2.1665225860465936e-59 0.0
0.0 -3.554645107019283e-60 0.0
0.0 5.7704145777286734e-61 0.0
0.0 -9.272241452130352e-62 0.0
0.0 1.475418092588858e-62 0.0
0.0 -2.32591239312879e-63 0.0
0.0 3.634482688434173e-64 0.0
0.0 -5.633008558460602e-65 0.0
0.0 8.666763436069952e-66 0.0
0.0 -1.3252846472120785e-66 0.0
0.0 2.0176005670619072e-67 0.0
0.0 -3.065422648088346e-68 0.0
0.0 4.664000749973159e-69 0.0
0.0 -7.139281939257451e-70 0.0
0.0 1.1060153679618753e-70 0.0
0.0 -1.7462818585822735e-71 0.0
0.0 2.8303603153877665e-72 0.0
0.0 -4.737503964596645e-73 0.0
0.0 8.215535607481222e-74 0.0
0.0 -1.4752447681056364e-74 0.0
0.0 2.731830078380045e-75 0.0
0.0 -5.183595936876265e-76 0.0
0.0 1.0007529245894498e-76 0.0
0.0 -1.953068400191965e-77 0.0
0.0 3.8326687009430745e-78 0.0
0.0 -7.53276609122418e-79 0.0
0.0 1.4786491061435778e-79 0.0
0.0 -2.8935085105212068e-80 0.0
0.0 5.637950981462617e-81 0.0
0.0 -1.0930763230890741e-81 0.0
0.0 2.1078963806384065e-82 0.0
0.0 -4.042480405345345e-83 0.0
0.0 7.709693203115315e-84 0.0
0.0 -1.462329464664049e-84 0.0
0.0 2.7588216111239557e-85 0.0
0.0 -5.1776953968382734e-86 0.0
0.0 9.668399814695872e-87 0.0
0.0 -1.7965985348464598e-87 0.0
0.0 3.3227579835774137e-88 0.0
0.0 -6.117425827087858e-89 0.0
0.0 1.1213197094705415e-89 0.0
0.0 -2.046662252775514e-90 0.0
0.0 3.720323950196026e-91 0.0
0.0 -6.735838675144243e-92 0.0
0.0 1.214882063709113e-92 0.0
0.0 -2.183032051657808e-93 0.0
0.0 3.908577217126008e-94 0.0
0.0 -6.97358542104972e-95 0.0
0.0 1.2399839177372245e-95 0.0
0.0 -2.1975548351604667e-96 0.0
0.0 3.882094808821544e-97 0.0
0.0 -6.836475195709878e-98 0.0
0.0 1.200253718452822e-98 0.0
0.0 -2.100979630904664e-99 0.0
0.0 3.66699396220519e-100 0.0
0.0 -6.382167524188736e-101 0.0
0.0 1.1077060257594828e-101 0.0
0.0 -1.9173724863840674e-102 0.0
0.0 3.310093237640483e-103 0.0
0.0 -5.699682756185477e-104 0.0
0.0 9.78952773671389e-105 0.0
0.0 -1.677244091911227e-105 0.0
0.0 2.866660054389857e-106 0.0
0.0 -4.8879026092910036e-107 0.0
0.0 8.314870873045739e-108 0.0
0.0 -1.4112192363584455e-108 0.0
0.0 2.389781131673741e-109 0.0
0.0 -4.037981904841671e-110 0.0
0.0 6.808171317882723e-111 0.0
0.0 -1.145441930597306e-111 0.0
0.0 1.9231280098867293e-112 0.0
0.0 -3.222190900105925e-113 0.0
0.0 5.387870998534899e-114 0.0
0.0 -8.991255203637726e-115 0.0
0.0 1.4975265684096497e-115 0.0
0.0 -2.4893915095442472e-116 0.0
0.0 4.130372752323237e-117 0.0
0.0 -6.840299874747189e-118 0.0
0.0 1.1307404727064162e-118 0.0
0.0 -1.865796505117675e-119 0.0
0.0 3.073197007048295e-120 0.0
0.0 -5.05303354617175e-121 0.0
0.0 8.293925165182648e-122 0.0
0.0 -1.3590152698281108e-122 0.0
0.0 2.223077743643389e-123 0.0
0.0 -3.6304504900255943e-124 0.0
0.0 5.919037320350546e-125 0.0
0.0 -9.634632485978825e-126 0.0
0.0 1.5657458111810576e-126 0.0
0.0 -2.5404907041406926e-127 0.0
0.0 4.115590258445132e-128 0.0
0.0 -6.656906480015018e-129 0.0
0.0 1.0750927684909174e-129 0.0
0.0 -1.73364297514102e-130 0.0
0.0 2.791389457848507e-131 0.0
0.0 -4.4878133949557496e-132 0.0
0.0 7.204585672959611e-133 0.0
0.0 -1.1549125703254969e-133 0.0
0.0 1.8486761653620173e-134 0.0
0.0 -2.9549471043276016e-135 0.0
0.0 4.7165121788117696e-136 0.0
0.0 -7.517606318926368e-137 0.0
0.0 1.1965484874116685e-137 0.0
0.0 -1.901855905914104e-138 0.0
0.0 3.018740105406238e-139 0.0
0.0 -4.784963317457463e-140 0.0
0.0 7.574255988630156e-141 0.0
0.0 -1.19732834772092e-141 0.0
0.0 1.8901733899928523e-142 0.0
0.0 -2.979943440713274e-143 0.0
0.0 4.691751692084837e-144 0.0
0.0 -7.377088277906648e-145 0.0
0.0 1.1584037428131555e-145 0.0
0.0 -1.816609348865863e-146 0.0
0.0 2.8450205716830257e-147 0.0
0.0 -4.447278516311575e-148 0.0
0.0 6.7819570511427485e-149 0.0
0.0 6.781957051036385e-149 0.0
0.0 -4.447278516232104e-148 0.0
0.0 2.8450205716254285e-147 0.0
0.0 -1.8166093488244904e-146 0.0
0.0 1.158403742783744e-145 0.0
0.0 -7.377088277699553e-145 0.0
0.0 4.691751691940699e-144 0.0
0.0 -2.97994344061402e-143 0.0
0.0 1.8901733899251715e-142 0.0
0.0 -1.1973283476749963e-141 0.0
0.0 7.574255988319443e-141 0.0
0.0 -4.784963317247044e-140 0.0
0.0 3.0187401052637334e-139 0.0
0.0 -1.9018559058175882e-138 0.0
0.0 1.196548487346192e-137 0.0
0.0 -7.517606318480902e-137 0.0
0.0 4.716512178507722e-136 0.0
0.0 -2.954947104119162e-135 0.0
0.0 1.848676165218253e-134 0.0
0.0 -1.1549125702256659e-133 0.0
0.0 7.204585672260828e-133 0.0
0.0 -4.487813394461982e-132 0.0
0.0 2.7913894574959757e-131 0.0
0.0 -1.7336429748869743e-130 0.0
0.0 1.0750927683058701e-129 0.0
0.0 -6.656906478657171e-129 0.0
0.0 4.115590257437539e-128 0.0
0.0 -2.5404907033843903e-127 0.0
0.0 1.565745810606272e-126 0.0
0.0 -9.634632481555541e-126 0.0
0.0 5.919037316905468e-125 0.0
0.0 -3.6304504873128147e-124 0.0
0.0 2.22307774148625e-123 0.0
0.0 -1.3590152680985627e-122 0.0
0.0 8.293925151220377e-122 0.0
0.0 -5.053033534838981e-121 0.0
0.0 3.0731969978117058e-120 0.0
0.0 -1.8657964975669817e-119 0.0
0.0 1.130740466521292e-118 0.0
0.0 -6.840299824018992e-118 0.0
0.0 4.130372710693928e-117 0.0
0.0 -2.4893914753802385e-116 0.0
0.0 1.4975265403829762e-115 0.0
0.0 -8.991254973886543e-115 0.0
0.0 5.3878708103828725e-114 0.0
0.0 -3.222190746209238e-113 0.0
0.0 1.9231278841844498e-112 0.0
0.0 -1.145441828082021e-111 0.0
0.0 6.808170483212136e-111 0.0
0.0 -4.0379812264494133e-110 0.0
0.0 2.3897805813090003e-109 0.0
0.0 -1.4112187907084525e-108 0.0
0.0 8.314867271539896e-108 0.0
0.0 -4.887899704617292e-107 0.0
0.0 2.866657716566918e-106 0.0
0.0 -1.6772422142970059e-105 0.0
0.0 9.789512689295266e-105 0.0
0.0 -5.699670723583589e-104 0.0
0.0 3.310083637438344e-103 0.0
0.0 -1.9173648444019038e-102 0.0
0.0 1.1076999567475026e-101 0.0
0.0 -6.382119440509551e-101 0.0
0.0 3.6669559584714904e-100 0.0
0.0 -2.1009496679548316e-99 0.0
0.0 1.2002301542331553e-98 0.0
0.0 -6.836290348973162e-98 0.0
0.0 3.881950184845089e-97 0.0
0.0 -2.1974419809866332e-96 0.0
0.0 1.2398960919118127e-95 0.0
0.0 -6.972903817234909e-95 0.0
0.0 3.9080497150410806e-94 0.0
0.0 -2.18262497583077e-93 0.0
0.0 1.2145688352024079e-92 0.0
0.0 -6.733435656122345e-92 0.0
0.0 3.71848598426867e-91 0.0
0.0 -2.045260809358434e-90 0.0
0.0 1.1202544773831932e-89 0.0
0.0 -6.109355051398996e-89 0.0
0.0 3.316663182293332e-88 0.0
0.0 -1.7920113425008817e-87 0.0
0.0 9.633992851610891e-87 0.0
0.0 -5.1519780889225834e-86 0.0
0.0 2.7396679813764265e-85 0.0
0.0 -1.4481163734098426e-84 0.0
0.0 7.6046175567702195e-84 0.0
0.0 -3.9650958063518046e-83 0.0
0.0 2.0511278808713524e-82 0.0
0.0 -1.0515980457713926e-81 0.0
0.0 5.336127616586245e-81 0.0
0.0 -2.674802538213198e-80 0.0
0.0 1.3208519726868105e-79 0.0
0.0 -6.399266305146565e-79 0.0
0.0 3.022120480333598e-78 0.0
0.0 -1.3761419217182386e-77 0.0
0.0 5.9206371221711824e-77 0.0
0.0 -2.302607801443872e-76 0.0
0.0 7.111046002900467e-76 0.0
0.0 -6.520957955983374e-76 0.0
0.0 -1.5713763614170885e-74 0.0
0.0 2.018465531723214e-73 0.0
0.0 -1.8071590055986076e-72 0.0
0.0 1.4186617274694474e-71 0.0
0.0 -1.0410763110613759e-70 0.0
0.0 7.337014861077525e-70 0.0
0.0 -5.034394560594126e-69 0.0
0.0 3.3894243876763804e-68 0.0
0.0 -2.249356662874149e-67 0.0
0.0 1.475588053592111e-66 0.0
0.0 -9.584836928392684e-66 0.0
0.0 6.170832043332229e-65 0.0
0.0 -3.939678739162729e-64 0.0
0.0 2.494668843059255e-63 0.0
0.0 -1.5666736743695194e-62 0.0
0.0 9.755883917661653e-62 0.0
0.0 -6.021924110237364e-61 0.0
0.0 3.6830189003224984e-60 0.0
0.0 -2.2307992285720767e-59 0.0
0.0 1.3374101177207175e-58 0.0
0.0 -7.931374811988047e-58 0.0
0.0 4.649593782171821e-57 0.0
0.0 -2.692367567743729e-56 0.0
0.0 1.5386493570797034e-55 0.0
0.0 -8.67016317776226e-55 0.0
0.0 4.81263207865064e-54 0.0
0.0 -2.629813212525849e-53 0.0
0.0 1.4163225641218098e-52 0.0
0.0 -7.588838852856691e-52 0.0
0.0 4.2204765033952504e-51 0.0
0.0 -2.8066814838446063e-50 0.0
0.0 2.8377642940199613e-49 0.0
0.0 -4.4191514514864226e-48 0.0
0.0 8.360495382249228e-47 0.0
0.0 -1.6519003481468564e-45 0.0
0.0 3.249687086470357e-44 0.0
0.0 -6.285986917130959e-43 0.0
0.0 1.191075548947268e-41 0.0
0.0 -2.206550733752229e-40 0.0
0.0 3.990183936236729e-39 0.0
0.0 -7.031197459061474e-38 0.0
0.0 1.204994624205694e-36 0.0
0.0 -2.0040264550515757e-35 0.0
0.0 3.226103090316357e-34 0.0
0.0 -5.012036823294321e-33 0.0
0.0 7.488087939198803e-32 0.0
0.0 -1.071224299454783e-30 0.0
0.0 1.459561999717418e-29 0.0
0.0 -1.8811539500964622e-28 0.0
0.0 2.2725637401621835e-27 0.0
0.0 -2.540326138438898e-26 0.0
0.0 2.576051536706747e-25 0.0
0.0 -2.2899731662263253e-24 0.0
0.0 1.6588366889690234e-23 0.0
0.0 -7.707527699156566e-23 0.0
0.0 -1.6288763971442428e-22 0.0
0.0 8.583101592633664e-21 0.0
0.0 -1.078066851382583e-19 0.0
0.0 7.729661493702856e-19 0.0
0.0 -1.5473503957390268e-18 0.0
0.0 -3.8915737581982113e-17 0.0
0.0 5.34037134667887e-16 0.0
0.0 -2.5881477263334006e-15 0.0
0.0 -1.3112639282319344e-14 0.0
0.0 2.766203445173056e-13 0.0
0.0 -1.0893804104337077e-12 0.0
0.0 -1.0716768449001795e-11 0.0
0.0 1.1524737187926045e-10 0.0
0.0 2.114656803337279e-10 0.0
0.0 -6.7260379144762156e-09 0.0
0.0 -5.773577268018888e-09 0.0
0.0 3.2322676365232435e-07 0.0
0.0 1.0060491414262228e-06 0.0
0.0 -9.62384460097038e-06 0.0
0.0 -9.470564245488842e-05 0.0
0.0 -0.0003988719801942058 0.0
0.0 -0.0010132123551865567 0.0
0.0 -0.0016849432599465742 0.0
0.0 -0.00193200089340316 0.0
0.0 -0.0017658585852768154 0.0
0.0 -0.0017235404342212583 0.0
0.0 -0.0018426279765998597 0.0
0.0 -0.0017856528778183798 0.0
0.0 -0.0017563849713013162 0.0
0.0 -0.001824863298720185 0.0
0.0 -0.0017693140244334972 0.0
0.0 -0.0017866815146278154 0.0
0.0 -0.001805851533111855 0.0
0.0 -0.0017657184997037 0.0
0.0 -0.0018095172232559713 0.0
0.0 -0.001774474580348069 0.0
0.0 -0.0017947651364568537 0.0
0.0 -0.0017900448008731464 0.0
0.0 -0.0017814566455986159 0.0
0.0 -0.0017998662884513691 0.0
0.0 -0.001775116508601118 0.0
0.0 -0.001803359910386108 0.0
0.0 -0.0017736339607918124 0.0
0.0 -0.0018036218657329556 0.0
0.0 -0.0017739560023594067 0.0
0.0 -0.0018031714379091468 0.0
0.0 -0.0018031714379091147 0.0
0.0 -0.0017739560023594162 0.0
0.0 -0.0018036218657329324 0.0
0.0 -0.001773633960791828 0.0
0.0 -0.001803359910386099 0.0
0.0 -0.0017751165086011482 0.0
0.0 -0.0017998662884513078 0.0
0.0 -0.001781456645598773 0.0
0.0 -0.0017900448008728851 0.0
0.0 -0.00179476513645715 0.0
0.0 -0.001774474580347773 0.0
0.0 -0.0018095172232561402 0.0
0.0 -0.0017657184997038641 0.0
0.0 -0.001805851533111213 0.0
0.0 -0.001786681514628841 0.0
0.0 -0.001769314024432497 0.0
0.0 -0.0018248632987203643 0.0
0.0 -0.0017563849713026806 0.0
0.0 -0.0017856528778158057 0.0
0.0 -0.0018426279766012713 0.0
0.0 -0.0017235404342241132 0.0
0.0 -0.0017658585852710163 0.0
0.0 -0.0019320008934022147 0.0
0.0 -0.0016849432599653621 0.0
0.0 -0.0010132123552138578 0.0
0.0 -0.00039887198021270763 0.0
0.0 -9.470564246183945e-05 0.0
0.0 -9.623844602267723e-06 0.0
0.0 1.0060491414120039e-06 0.0
0.0 3.2322676368876704e-07 0.0
0.0 -5.7735772653245765e-09 0.0
0.0 -6.726037915319316e-09 0.0
0.0 2.1146568028382343e-10 0.0
0.0 1.152473718994583e-10 0.0
0.0 -1.0716768449312539e-11 0.0
0.0 -1.0893804107984723e-12 0.0
0.0 2.766203445604929e-13 0.0
0.0 -1.3112639280904268e-14 0.0