# vtk DataFile Version 2.0
data_876
ASCII
DATASET UNSTRUCTURED_GRID
POINTS 804 float
0.0 0.0 0.0
0.1 0.0 0.0
0.1 20.0 0.0
0.0 20.0 0.0
0.0 0.0 -0.1
0.1 0.0 -0.1
0.1 20.0 -0.1
0.0 20.0 -0.1
0.1 0.09999999999992462 0.0
0.1 0.1999999999998517 0.0
0.1 0.2999999999997818 0.0
0.1 0.399999999999712 0.0
0.1 0.4999999999996377 0.0
0.1 0.5999999999995541 0.0
0.1 0.6999999999994495 0.0
0.1 0.7999999999993355 0.0
0.1 0.8999999999992101 0.0
0.1 0.999999999999102 0.0
0.1 1.099999999999006 0.0
0.1 1.199999999998936 0.0
0.1 1.299999999998867 0.0
0.1 1.399999999998797 0.0
0.1 1.499999999998727 0.0
0.1 1.599999999998657 0.0
0.1 1.699999999998587 0.0
0.1 1.799999999998517 0.0
0.1 1.899999999998447 0.0
0.1 1.999999999998378 0.0
0.1 2.099999999998308 0.0
0.1 2.199999999998238 0.0
0.1 2.299999999998168 0.0
0.1 2.399999999998067 0.0
0.1 2.499999999997942 0.0
0.1 2.599999999997706 0.0
0.1 2.699999999997444 0.0
0.1 2.799999999997153 0.0
0.1 2.899999999996861 0.0
0.1 2.999999999996569 0.0
0.1 3.099999999996277 0.0
0.1 3.199999999995984 0.0
0.1 3.299999999995693 0.0
0.1 3.399999999995401 0.0
0.1 3.499999999995108 0.0
0.1 3.599999999994816 0.0
0.1 3.699999999994525 0.0
0.1 3.799999999994232 0.0
0.1 3.89999999999394 0.0
0.1 3.999999999993648 0.0
0.1 4.099999999993356 0.0
0.1 4.199999999993064 0.0
0.1 4.299999999992772 0.0
0.1 4.399999999992479 0.0
0.1 4.499999999992188 0.0
0.1 4.599999999991895 0.0
0.1 4.699999999991603 0.0
0.1 4.799999999991311 0.0
0.1 4.899999999991019 0.0
0.1 4.999999999990727 0.0
0.1 5.099999999990436 0.0
0.1 5.199999999990144 0.0
0.1 5.299999999989851 0.0
0.1 5.399999999989559 0.0
0.1 5.499999999989267 0.0
0.1 5.599999999988975 0.0
0.1 5.699999999988683 0.0
0.1 5.799999999988391 0.0
0.1 5.899999999988099 0.0
0.1 5.999999999987806 0.0
0.1 6.099999999987515 0.0
0.1 6.199999999987222 0.0
0.1 6.299999999986929 0.0
0.1 6.399999999986638 0.0
0.1 6.499999999986345 0.0
0.1 6.599999999986054 0.0
0.1 6.699999999985762 0.0
0.1 6.79999999998547 0.0
0.1 6.899999999985177 0.0
0.1 6.999999999984885 0.0
0.1 7.099999999984593 0.0
0.1 7.199999999984302 0.0
0.1 7.299999999984009 0.0
0.1 7.399999999983717 0.0
0.1 7.499999999983426 0.0
0.1 7.599999999983132 0.0
0.1 7.699999999982841 0.0
0.1 7.799999999982549 0.0
0.1 7.899999999982256 0.0
0.1 7.999999999982034 0.0
0.1 8.099999999981964 0.0
0.1 8.199999999982062 0.0
0.1 8.299999999982214 0.0
0.1 8.399999999982366 0.0
0.1 8.499999999982517 0.0
0.1 8.59999999998267 0.0
0.1 8.699999999982822 0.0
0.1 8.799999999982973 0.0
0.1 8.899999999983125 0.0
0.1 8.999999999983277 0.0
0.1 9.09999999998343 0.0
0.1 9.19999999998358 0.0
0.1 9.299999999983733 0.0
0.1 9.399999999983885 0.0
0.1 9.499999999984038 0.0
0.1 9.599999999984188 0.0
0.1 9.69999999998434 0.0
0.1 9.799999999984493 0.0
0.1 9.899999999984646 0.0
0.1 9.999999999984798 0.0
0.1 10.09999999998495 0.0
0.1 10.1999999999851 0.0
0.1 10.29999999998525 0.0
0.1 10.39999999998541 0.0
0.1 10.49999999998556 0.0
0.1 10.59999999998571 0.0
0.1 10.69999999998586 0.0
0.1 10.79999999998601 0.0
0.1 10.89999999998616 0.0
0.1 10.99999999998632 0.0
0.1 11.09999999998647 0.0
0.1 11.19999999998662 0.0
0.1 11.29999999998677 0.0
0.1 11.39999999998693 0.0
0.1 11.49999999998708 0.0
0.1 11.59999999998723 0.0
0.1 11.69999999998738 0.0
0.1 11.79999999998754 0.0
0.1 11.89999999998769 0.0
0.1 11.99999999998784 0.0
0.1 12.09999999998799 0.0
0.1 12.19999999998814 0.0
0.1 12.2999999999883 0.0
0.1 12.39999999998845 0.0
0.1 12.4999999999886 0.0
0.1 12.59999999998875 0.0
0.1 12.6999999999889 0.0
0.1 12.79999999998905 0.0
0.1 12.89999999998921 0.0
0.1 12.99999999998936 0.0
0.1 13.09999999998951 0.0
0.1 13.19999999998966 0.0
0.1 13.29999999998982 0.0
0.1 13.39999999998997 0.0
0.1 13.49999999999012 0.0
0.1 13.59999999999027 0.0
0.1 13.69999999999042 0.0
0.1 13.79999999999057 0.0
0.1 13.89999999999073 0.0
0.1 13.99999999999088 0.0
0.1 14.09999999999103 0.0
0.1 14.19999999999118 0.0
0.1 14.29999999999134 0.0
0.1 14.39999999999149 0.0
0.1 14.49999999999164 0.0
0.1 14.59999999999179 0.0
0.1 14.69999999999194 0.0
0.1 14.7999999999921 0.0
0.1 14.89999999999225 0.0
0.1 14.9999999999924 0.0
0.1 15.09999999999255 0.0
0.1 15.1999999999927 0.0
0.1 15.29999999999285 0.0
0.1 15.39999999999301 0.0
0.1 15.49999999999316 0.0
0.1 15.59999999999331 0.0
0.1 15.69999999999346 0.0
0.1 15.79999999999362 0.0
0.1 15.89999999999377 0.0
0.1 15.99999999999392 0.0
0.1 16.09999999999407 0.0
0.1 16.19999999999422 0.0
0.1 16.29999999999437 0.0
0.1 16.39999999999453 0.0
0.1 16.49999999999468 0.0
0.1 16.59999999999483 0.0
0.1 16.69999999999498 0.0
0.1 16.79999999999514 0.0
0.1 16.89999999999528 0.0
0.1 16.99999999999544 0.0
0.1 17.09999999999559 0.0
0.1 17.19999999999574 0.0
0.1 17.29999999999589 0.0
0.1 17.39999999999605 0.0
0.1 17.4999999999962 0.0
0.1 17.59999999999635 0.0
0.1 17.6999999999965 0.0
0.1 17.79999999999665 0.0
0.1 17.89999999999681 0.0
0.1 17.99999999999696 0.0
0.1 18.09999999999711 0.0
0.1 18.19999999999726 0.0
0.1 18.29999999999742 0.0
0.1 18.39999999999757 0.0
0.1 18.49999999999772 0.0
0.1 18.59999999999787 0.0
0.1 18.69999999999802 0.0
0.1 18.79999999999818 0.0
0.1 18.89999999999833 0.0
0.1 18.99999999999848 0.0
0.1 19.09999999999863 0.0
0.1 19.19999999999878 0.0
0.1 19.29999999999894 0.0
0.1 19.39999999999909 0.0
0.1 19.49999999999924 0.0
0.1 19.59999999999939 0.0
0.1 19.69999999999955 0.0
0.1 19.7999999999997 0.0
0.1 19.89999999999985 0.0
0.0 19.9 0.0
0.0 19.8 0.0
0.0 19.7 0.0
0.0 19.6 0.0
0.0 19.5 0.0
0.0 19.4 0.0
0.0 19.3 0.0
0.0 19.2 0.0
0.0 19.1 0.0
0.0 19.0 0.0
0.0 18.9 0.0
0.0 18.8 0.0
0.0 18.7 0.0
0.0 18.6 0.0
0.0 18.5 0.0
0.0 18.4 0.0
0.0 18.3 0.0
0.0 18.2 0.0
0.0 18.1 0.0
0.0 18.0 0.0
0.0 17.9 0.0
0.0 17.8 0.0
0.0 17.7 0.0
0.0 17.6 0.0
0.0 17.5 0.0
0.0 17.4 0.0
0.0 17.3 0.0
0.0 17.2 0.0
0.0 17.09999999999999 0.0
0.0 17.0 0.0
0.0 16.9 0.0
0.0 16.8 0.0
0.0 16.7 0.0
0.0 16.59999999999999 0.0
0.0 16.49999999999999 0.0
0.0 16.4 0.0
0.0 16.29999999999999 0.0
0.0 16.2 0.0
0.0 16.09999999999999 0.0
0.0 15.99999999999999 0.0
0.0 15.89999999999999 0.0
0.0 15.79999999999999 0.0
0.0 15.69999999999999 0.0
0.0 15.59999999999999 0.0
0.0 15.49999999999999 0.0
0.0 15.39999999999999 0.0
0.0 15.29999999999999 0.0
0.0 15.19999999999999 0.0
0.0 15.09999999999999 0.0
0.0 14.99999999999999 0.0
0.0 14.89999999999999 0.0
0.0 14.79999999999999 0.0
0.0 14.69999999999999 0.0
0.0 14.59999999999999 0.0
0.0 14.49999999999999 0.0
0.0 14.39999999999999 0.0
0.0 14.29999999999999 0.0
0.0 14.19999999999999 0.0
0.0 14.09999999999999 0.0
0.0 13.99999999999999 0.0
0.0 13.89999999999999 0.0
0.0 13.79999999999999 0.0
0.0 13.69999999999999 0.0
0.0 13.59999999999999 0.0
0.0 13.49999999999999 0.0
0.0 13.39999999999999 0.0
0.0 13.29999999999999 0.0
0.0 13.19999999999999 0.0
0.0 13.09999999999999 0.0
0.0 12.99999999999999 0.0
0.0 12.89999999999999 0.0
0.0 12.79999999999999 0.0
0.0 12.69999999999999 0.0
0.0 12.59999999999999 0.0
0.0 12.49999999999999 0.0
0.0 12.39999999999999 0.0
0.0 12.29999999999999 0.0
0.0 12.19999999999999 0.0
0.0 12.09999999999999 0.0
0.0 11.99999999999999 0.0
0.0 11.89999999999999 0.0
0.0 11.79999999999999 0.0
0.0 11.69999999999999 0.0
0.0 11.59999999999999 0.0
0.0 11.49999999999999 0.0
0.0 11.39999999999999 0.0
0.0 11.29999999999999 0.0
0.0 11.19999999999999 0.0
0.0 11.09999999999999 0.0
0.0 10.99999999999999 0.0
0.0 10.89999999999999 0.0
0.0 10.79999999999999 0.0
0.0 10.69999999999999 0.0
0.0 10.59999999999999 0.0
0.0 10.49999999999999 0.0
0.0 10.39999999999999 0.0
0.0 10.29999999999999 0.0
0.0 10.19999999999999 0.0
0.0 10.09999999999999 0.0
0.0 9.999999999999993 0.0
0.0 9.899999999999993 0.0
0.0 9.799999999999994 0.0
0.0 9.699999999999992 0.0
0.0 9.599999999999993 0.0
0.0 9.499999999999993 0.0
0.0 9.399999999999993 0.0
0.0 9.299999999999995 0.0
0.0 9.199999999999996 0.0
0.0 9.099999999999994 0.0
0.0 8.999999999999995 0.0
0.0 8.899999999999995 0.0
0.0 8.799999999999994 0.0
0.0 8.699999999999994 0.0
0.0 8.599999999999994 0.0
0.0 8.499999999999995 0.0
0.0 8.399999999999995 0.0
0.0 8.299999999999994 0.0
0.0 8.199999999999994 0.0
0.0 8.099999999999994 0.0
0.0 7.999999999999993 0.0
0.0 7.899999999999995 0.0
0.0 7.799999999999995 0.0
0.0 7.699999999999996 0.0
0.0 7.599999999999996 0.0
0.0 7.499999999999996 0.0
0.0 7.399999999999995 0.0
0.0 7.299999999999995 0.0
0.0 7.199999999999996 0.0
0.0 7.099999999999994 0.0
0.0 6.999999999999995 0.0
0.0 6.899999999999995 0.0
0.0 6.799999999999995 0.0
0.0 6.699999999999996 0.0
0.0 6.599999999999994 0.0
0.0 6.499999999999995 0.0
0.0 6.399999999999997 0.0
0.0 6.299999999999997 0.0
0.0 6.199999999999996 0.0
0.0 6.099999999999996 0.0
0.0 5.999999999999996 0.0
0.0 5.899999999999997 0.0
0.0 5.799999999999997 0.0
0.0 5.699999999999996 0.0
0.0 5.599999999999996 0.0
0.0 5.499999999999996 0.0
0.0 5.399999999999995 0.0
0.0 5.299999999999995 0.0
0.0 5.199999999999996 0.0
0.0 5.099999999999996 0.0
0.0 4.999999999999998 0.0
0.0 4.899999999999999 0.0
0.0 4.799999999999997 0.0
0.0 4.699999999999998 0.0
0.0 4.599999999999998 0.0
0.0 4.499999999999996 0.0
0.0 4.399999999999997 0.0
0.0 4.299999999999997 0.0
0.0 4.199999999999998 0.0
0.0 4.099999999999998 0.0
0.0 3.999999999999996 0.0
0.0 3.899999999999999 0.0
0.0 3.799999999999997 0.0
0.0 3.699999999999996 0.0
0.0 3.599999999999998 0.0
0.0 3.5 0.0
0.0 3.399999999999999 0.0
0.0 3.299999999999997 0.0
0.0 3.199999999999999 0.0
0.0 3.099999999999998 0.0
0.0 3.0 0.0
0.0 2.899999999999999 0.0
0.0 2.799999999999997 0.0
0.0 2.699999999999999 0.0
0.0 2.599999999999998 0.0
0.0 2.499999999999996 0.0
0.0 2.399999999999999 0.0
0.0 2.299999999999997 0.0
0.0 2.199999999999999 0.0
0.0 2.100000000000001 0.0
0.0 2.0 0.0
0.0 1.899999999999999 0.0
0.0 1.800000000000001 0.0
0.0 1.699999999999999 0.0
0.0 1.599999999999998 0.0
0.0 1.5 0.0
0.0 1.399999999999999 0.0
0.0 1.299999999999997 0.0
0.0 1.199999999999999 0.0
0.0 1.099999999999998 0.0
0.0 1.0 0.0
0.0 0.8999999999999986 0.0
0.0 0.8000000000000007 0.0
0.0 0.6999999999999993 0.0
0.0 0.6000000000000014 0.0
0.0 0.5 0.0
0.0 0.3999999999999986 0.0
0.0 0.3000000000000007 0.0
0.0 0.1999999999999993 0.0
[...]
POINT_DATA 804
VECTORS displacement double
0.0 0.0 0.0
0.0 0.0 0.0
0.0 0.001784108214942419 0.0
0.0 0.0017841082149424189 0.0
0.0 0.0 0.0
0.0 0.0 0.0
0.0 0.0017841082149424223 0.0
0.0 0.0017841082149424195 0.0
0.0 8.568219251101162e-10 0.0
0.0 9.813435331275369e-10 0.0
0.0 -6.663623709749101e-10 0.0
0.0 -1.954013077871222e-09 0.0
0.0 4.066544540838141e-10 0.0
0.0 3.2736808479589807e-09 0.0
0.0 4.5296257078213497e-10 0.0
0.0 -4.490461641829801e-09 0.0
0.0 -1.5967314969564708e-09 0.0
0.0 6.185537358887895e-09 0.0
0.0 4.15727962975976e-09 0.0
0.0 -7.192637520372585e-09 0.0
0.0 -7.646390049055258e-09 0.0
0.0 7.821930388324288e-09 0.0
0.0 1.3597795120979513e-08 0.0
0.0 -5.419399617318608e-09 0.0
0.0 -2.05746877039868e-08 0.0
0.0 -9.01797484839361e-10 0.0
0.0 2.856939167481894e-08 0.0
0.0 1.5736137630596197e-08 0.0
0.0 -3.1379837563856325e-08 0.0
0.0 -3.940995678918219e-08 0.0
0.0 2.166991619399457e-08 0.0
0.0 7.096242683569503e-08 0.0
0.0 1.6647054415062652e-08 0.0
0.0 -9.197849033038194e-08 0.0
0.0 -9.303188589796229e-08 0.0
0.0 6.549669511651166e-08 0.0
0.0 1.9633822878836962e-07 0.0
0.0 7.093232524583504e-08 0.0
0.0 -2.404824527939177e-07 0.0
0.0 -3.4326138721767473e-07 0.0
0.0 3.844315813660809e-08 0.0
0.0 6.009087674889983e-07 0.0
0.0 6.101320975749711e-07 0.0
0.0 -2.95924709903979e-07 0.0
0.0 -1.4190272712454573e-06 0.0
0.0 -1.3282031780541042e-06 0.0
0.0 7.469333811870965e-07 0.0
0.0 3.5669423742654587e-06 0.0
0.0 4.058867969028415e-06 0.0
0.0 -4.115110688484659e-07 0.0
0.0 -8.693434470956133e-06 0.0
0.0 -1.3515519394974906e-05 0.0
0.0 -1.9457248913150827e-06 0.0
0.0 4.1065169157799585e-05 0.0
0.0 0.00012748556121113216 0.0
0.0 0.0002616626047078531 0.0
0.0 0.0004383642842824187 0.0
0.0 0.0006440332840446413 0.0
0.0 0.0008604768257339053 0.0
0.0 0.0010693948046679171 0.0
0.0 0.0012561564244742943 0.0
0.0 0.0014118654841571573 0.0
0.0 0.0015335721966361613 0.0
0.0 0.0016231118278174478 0.0
0.0 0.001685306433959777 0.0
0.0 0.0017261917623584027 0.0
0.0 0.0017516757837988343 0.0
0.0 0.0017667581754182168 0.0
0.0 0.001775242597969472 0.0
0.0 0.0017797823024820949 0.0
0.0 0.0017820936105047462 0.0
0.0 0.001783213392767455 0.0
0.0 0.001783729492160728 0.0
0.0 0.0017839556714961398 0.0
0.0 0.0017840498247044128 0.0
0.0 0.0017840869788388902 0.0
0.0 0.0017841008670365186 0.0
0.0 0.0017841057766523507 0.0
0.0 0.0017841073934962782 0.0
0.0 0.0017841078949060235 0.0
0.0 0.0017841080513466162 0.0
0.0 0.0017841080864470361 0.0
0.0 0.0017841080919476727 0.0
0.0 0.0017841081040972252 0.0
0.0 0.0017841081041288663 0.0
0.0 0.0017841081000081755 0.0
0.0 0.0017841081085533189 0.0
0.0 0.0017841081101157158 0.0
0.0 0.0017841081059985443 0.0
0.0 0.0017841081128993897 0.0
0.0 0.0017841081156092984 0.0
0.0 0.001784108111853649 0.0
0.0 0.0017841081174363993 0.0
0.0 0.0017841081207297495 0.0
0.0 0.0017841081175079092 0.0
0.0 0.0017841081220820358 0.0
0.0 0.0017841081255868276 0.0
0.0 0.0017841081229358871 0.0
0.0 0.0017841081267633424 0.0
0.0 0.0017841081302628031 0.0
0.0 0.0017841081281231566 0.0
0.0 0.001784108131436252 0.0
0.0 0.0017841081347965812 0.0
0.0 0.0017841081330733637 0.0
0.0 0.001784108136077614 0.0
0.0 0.0017841081391866045 0.0
0.0 0.001784108137823425 0.0
0.0 0.0017841081406477887 0.0
0.0 0.0017841081434374617 0.0
0.0 0.0017841081424087991 0.0
0.0 0.0017841081450975594 0.0
0.0 0.001784108147584596 0.0
0.0 0.001784108146812021 0.0
0.0 0.0017841081494408752 0.0
0.0 0.0017841081516073135 0.0
0.0 0.0017841081510534924 0.0
0.0 0.001784108153673489 0.0
0.0 0.0017841081554866019 0.0
0.0 0.0017841081551647426 0.0
0.0 0.001784108157771971 0.0
0.0 0.0017841081592236518 0.0
0.0 0.00178410815916612 0.0
0.0 0.0017841081617062078 0.0
0.0 0.001784108162845437 0.0
0.0 0.0017841081630404633 0.0
0.0 0.0017841081654835366 0.0
0.0 0.0017841081663527375 0.0
0.0 0.001784108166779046 0.0
0.0 0.001784108169121999 0.0
0.0 0.0017841081697172745 0.0
0.0 0.0017841081704169717 0.0
0.0 0.001784108172587789 0.0
0.0 0.0017841081729610714 0.0
0.0 0.0017841081739526092 0.0
0.0 0.0017841081758618055 0.0
0.0 0.0017841081761139452 0.0
0.0 0.001784108177362433 0.0
0.0 0.0017841081789457664 0.0
0.0 0.0017841081792007581 0.0
0.0 0.0017841081806039803 0.0
0.0 0.001784108181882632 0.0
0.0 0.001784108182192723 0.0
0.0 0.0017841081836879713 0.0
0.0 0.001784108184673105 0.0
0.0 0.001784108185086319 0.0
0.0 0.0017841081866178425 0.0
0.0 0.0017841081873093457 0.0
0.0 0.0017841081878990574 0.0
0.0 0.0017841081893697909 0.0
0.0 0.0017841081898078497 0.0
0.0 0.0017841081906378854 0.0
0.0 0.0017841081919082102 0.0
0.0 0.0017841081922191511 0.0
0.0 0.001784108193264425 0.0
0.0 0.0017841081942347203 0.0
0.0 0.001784108194584254 0.0
0.0 0.0017841081957135558 0.0
0.0 0.0017841081964064213 0.0
0.0 0.0017841081968802313 0.0
0.0 0.0017841081979688236 0.0
0.0 0.0017841081984614877 0.0
0.0 0.0017841081990744847 0.0
0.0 0.0017841082000379289 0.0
0.0 0.001784108200418336 0.0
0.0 0.0017841082011366065 0.0
0.0 0.0017841082019466436 0.0
0.0 0.001784108202262424 0.0
0.0 0.001784108203075976 0.0
0.0 0.0017841082036797217 0.0
0.0 0.001784108204018861 0.0
0.0 0.0017841082048659991 0.0
0.0 0.0017841082052492984 0.0
0.0 0.00178410820570093 0.0
0.0 0.0017841082064737018 0.0
0.0 0.0017841082066863934 0.0
0.0 0.0017841082073055852 0.0
0.0 0.0017841082078606362 0.0
0.0 0.0017841082080605937 0.0
0.0 0.0017841082087629795 0.0
0.0 0.0017841082090623841 0.0
0.0 0.0017841082093886704 0.0
0.0 0.0017841082100139992 0.0
0.0 0.0017841082101460212 0.0
0.0 0.0017841082106355634 0.0
0.0 0.0017841082110385462 0.0
0.0 0.0017841082111804852 0.0
0.0 0.0017841082117163452 0.0
0.0 0.001784108211895967 0.0
0.0 0.001784108212159516 0.0
0.0 0.0017841082125849069 0.0
0.0 0.0017841082126568428 0.0
0.0 0.0017841082130278492 0.0
0.0 0.0017841082132511192 0.0
0.0 0.0017841082133620218 0.0
0.0 0.0017841082137149528 0.0
0.0 0.0017841082137797562 0.0
0.0 0.0017841082139832451 0.0
0.0 0.0017841082142017687 0.0
0.0 0.0017841082142234246 0.0
0.0 0.0017841082144640953 0.0
0.0 0.0017841082145185032 0.0
0.0 0.0017841082145931939 0.0
0.0 0.0017841082147587606 0.0
0.0 0.0017841082147221938 0.0
0.0 0.0017841082148491005 0.0
0.0 0.0017841082148717712 0.0
0.0 0.0017841082148437363 0.0
0.0 0.001784108214843736 0.0
0.0 0.0017841082148717657 0.0
0.0 0.0017841082148491096 0.0
0.0 0.0017841082147221983 0.0
0.0 0.0017841082147587737 0.0
0.0 0.0017841082145931824 0.0
0.0 0.0017841082145185006 0.0
0.0 0.0017841082144640845 0.0
0.0 0.00178410821422342 0.0
0.0 0.001784108214201759 0.0
0.0 0.00178410821398324 0.0
0.0 0.0017841082137797718 0.0
0.0 0.0017841082137149578 0.0
0.0 0.0017841082133620064 0.0
0.0 0.001784108213251124 0.0
0.0 0.0017841082130278514 0.0
0.0 0.0017841082126568292 0.0
0.0 0.0017841082125849045 0.0
0.0 0.0017841082121595152 0.0
0.0 0.001784108211895954 0.0
0.0 0.001784108211716345 0.0
0.0 0.0017841082111804884 0.0
0.0 0.0017841082110385449 0.0
0.0 0.0017841082106355671 0.0
0.0 0.001784108210146009 0.0
0.0 0.001784108210013998 0.0
0.0 0.001784108209388684 0.0
0.0 0.0017841082090623956 0.0
0.0 0.00178410820876298 0.0
0.0 0.0017841082080605939 0.0
0.0 0.0017841082078606447 0.0
0.0 0.0017841082073055908 0.0
0.0 0.0017841082066864043 0.0
0.0 0.0017841082064737105 0.0
0.0 0.0017841082057009085 0.0
0.0 0.0017841082052492989 0.0
0.0 0.0017841082048659902 0.0
0.0 0.0017841082040188651 0.0
0.0 0.0017841082036797243 0.0
0.0 0.0017841082030759662 0.0
0.0 0.0017841082022624097 0.0
0.0 0.0017841082019466362 0.0
0.0 0.0017841082011366164 0.0
0.0 0.0017841082004183362 0.0
0.0 0.0017841082000379256 0.0
0.0 0.0017841081990744797 0.0
0.0 0.0017841081984614952 0.0
0.0 0.0017841081979688277 0.0
0.0 0.0017841081968802425 0.0
0.0 0.0017841081964064295 0.0
0.0 0.0017841081957135423 0.0
0.0 0.0017841081945842519 0.0
0.0 0.0017841081942347264 0.0
0.0 0.001784108193264438 0.0
0.0 0.001784108192219164 0.0
0.0 0.0017841081919082057 0.0
0.0 0.0017841081906379054 0.0
0.0 0.001784108189807852 0.0
0.0 0.001784108189369793 0.0
0.0 0.0017841081878990504 0.0
0.0 0.0017841081873093596 0.0
0.0 0.0017841081866178346 0.0
0.0 0.0017841081850863245 0.0
0.0 0.0017841081846730967 0.0
0.0 0.0017841081836879843 0.0
0.0 0.0017841081821927147 0.0
0.0 0.001784108181882614 0.0
0.0 0.0017841081806039705 0.0
0.0 0.0017841081792007523 0.0
0.0 0.0017841081789457685 0.0
0.0 0.0017841081773624125 0.0
0.0 0.0017841081761139383 0.0
0.0 0.0017841081758618058 0.0
0.0 0.0017841081739526118 0.0
0.0 0.0017841081729610636 0.0
0.0 0.001784108172587786 0.0
0.0 0.001784108170416981 0.0
0.0 0.001784108169717278 0.0
0.0 0.0017841081691220004 0.0
0.0 0.001784108166779043 0.0
0.0 0.0017841081663527325 0.0
0.0 0.0017841081654835376 0.0
0.0 0.0017841081630404674 0.0
0.0 0.0017841081628454467 0.0
0.0 0.0017841081617062074 0.0
0.0 0.0017841081591661336 0.0
0.0 0.001784108159223627 0.0
0.0 0.0017841081577719695 0.0
0.0 0.001784108155164732 0.0
0.0 0.0017841081554866077 0.0
0.0 0.0017841081536734968 0.0
0.0 0.0017841081510534917 0.0
0.0 0.001784108151607314 0.0
0.0 0.0017841081494408763 0.0
0.0 0.0017841081468120113 0.0
0.0 0.0017841081475846027 0.0
0.0 0.0017841081450975633 0.0
0.0 0.0017841081424088028 0.0
0.0 0.0017841081434374528 0.0
0.0 0.0017841081406477866 0.0
0.0 0.0017841081378234124 0.0
0.0 0.0017841081391865993 0.0
0.0 0.0017841081360776103 0.0
0.0 0.0017841081330733663 0.0
0.0 0.0017841081347965797 0.0
0.0 0.0017841081314362392 0.0
0.0 0.0017841081281231338 0.0
0.0 0.0017841081302628113 0.0
0.0 0.001784108126763357 0.0
0.0 0.0017841081229358945 0.0
0.0 0.001784108125586827 0.0
0.0 0.001784108122082028 0.0
0.0 0.0017841081175079146 0.0
0.0 0.001784108120729747 0.0
0.0 0.0017841081174363898 0.0
0.0 0.0017841081118536459 0.0
0.0 0.001784108115609282 0.0
0.0 0.0017841081128994007 0.0
0.0 0.0017841081059985422 0.0
0.0 0.0017841081101157095 0.0
0.0 0.0017841081085533206 0.0
0.0 0.0017841081000081836 0.0
0.0 0.001784108104128849 0.0
0.0 0.0017841081040972126 0.0
0.0 0.0017841080919476613 0.0
0.0 0.0017841080864470446 0.0
0.0 0.001784108051346623 0.0
0.0 0.0017841078949060295 0.0
0.0 0.0017841073934962786 0.0
0.0 0.0017841057766523585 0.0
0.0 0.0017841008670365106 0.0
0.0 0.0017840869788388971 0.0
0.0 0.0017840498247044243 0.0
0.0 0.0017839556714961634 0.0
0.0 0.0017837294921607696 0.0
0.0 0.0017832133927675469 0.0
0.0 0.0017820936105049602 0.0
0.0 0.0017797823024825034 0.0
0.0 0.001775242597970254 0.0
0.0 0.001766758175419582 0.0
0.0 0.0017516757838011683 0.0
0.0 0.0017261917623621528 0.0
0.0 0.001685306433965508 0.0
0.0 0.0016231118278257064 0.0
0.0 0.0015335721966474383 0.0
0.0 0.001411865484171666 0.0
0.0 0.0012561564244917799 0.0
0.0 0.0010693948046876084 0.0
0.0 0.0008604768257545143 0.0
0.0 0.0006440332840644915 0.0
0.0 0.00043836428429983173 0.0
0.0 0.0002616626047214769 0.0
0.0 0.0001274855612203674 0.0
0.0 4.106516916291342e-05 0.0
0.0 -1.9457248893972913e-06 0.0
0.0 -1.3515519394905554e-05 0.0
0.0 -8.69343447156546e-06 0.0
0.0 -4.1151106933902914e-07 0.0
0.0 4.058867968902484e-06 0.0
0.0 3.5669423744055664e-06 0.0
0.0 7.469333813591192e-07 0.0
0.0 -1.3282031779831097e-06 0.0
0.0 -1.419027271289394e-06 0.0
0.0 -2.959247099665495e-07 0.0
0.0 6.101320975583419e-07 0.0
0.0 6.009087675079621e-07 0.0
0.0 3.8443158162754317e-08 0.0
0.0 -3.432613872161855e-07 0.0
0.0 -2.4048245279865984e-07 0.0
0.0 7.09323252415195e-08 0.0
0.0 1.9633822879839454e-07 0.0
0.0 6.549669512032267e-08 0.0
0.0 -9.303188588889454e-08 0.0
0.0 -9.197849033718457e-08 0.0
0.0 1.6647054413346937e-08 0.0
0.0 7.096242683518936e-08 0.0
0.0 2.1669916193962407e-08 0.0
0.0 -3.94099567889889e-08 0.0
0.0 -3.1379837568242195e-08 0.0
0.0 1.573613762714675e-08 0.0
0.0 2.856939167564984e-08 0.0
0.0 -9.017974821773511e-10 0.0
0.0 -2.0574687704959896e-08 0.0
0.0 -5.419399621365228e-09 0.0
0.0 1.359779512343805e-08 0.0
0.0 7.821930388856519e-09 0.0
0.0 -7.64639004917164e-09 0.0
0.0 -7.192637519317865e-09 0.0
0.0 4.157279629362267e-09 0.0
0.0 6.185537357600744e-09 0.0
0.0 -1.596731494619562e-09 0.0
0.0 -4.49046164205282e-09 0.0
0.0 4.52962571251109e-10 0.0
0.0 3.2736808505671904e-09 0.0
0.0 4.0665445577660713e-10 0.0
0.0 -1.9540130781126493e-09 0.0
0.0 -6.663623709780467e-10 0.0
0.0 9.813435340330306e-10 0.0
0.0 8.568219192055075e-10 0.0
0.0 8.568219200615749e-10 0.0
0.0 9.8134352953023e-10 0.0
0.0 -6.66362372675974e-10 0.0
0.0 -1.9540130771504013e-09 0.0
0.0 4.0665445432769834e-10 0.0
0.0 3.273680846339192e-09 0.0
0.0 4.52962567800992e-10 0.0
0.0 -4.490461641488533e-09 0.0
0.0 -1.5967314946068041e-09 0.0
0.0 6.185537359891701e-09 0.0
0.0 4.157279628907605e-09 0.0
0.0 -7.192637519538303e-09 0.0
0.0 -7.64639004808882e-09 0.0
0.0 7.82193038985025e-09 0.0
0.0 1.35977951264644e-08 0.0
0.0 -5.419399618125608e-09 0.0
0.0 -2.0574687700386484e-08 0.0
0.0 -9.017974804214476e-10 0.0
0.0 2.85693916772247e-08 0.0
0.0 1.57361376322911e-08 0.0
0.0 -3.137983756860207e-08 0.0
0.0 -3.940995679262301e-08 0.0
0.0 2.166991619340268e-08 0.0
0.0 7.096242683783697e-08 0.0
0.0 1.6647054414308902e-08 0.0
0.0 -9.197849033485905e-08 0.0
0.0 -9.30318858944352e-08 0.0
0.0 6.549669511084857e-08 0.0
0.0 1.9633822879767173e-07 0.0
0.0 7.093232525109367e-08 0.0
0.0 -2.404824527906631e-07 0.0
0.0 -3.432613872211265e-07 0.0
0.0 3.8443158137652376e-08 0.0
0.0 6.009087674875439e-07 0.0
0.0 6.101320975778429e-07 0.0
0.0 -2.959247099065424e-07 0.0
0.0 -1.4190272712532068e-06 0.0
0.0 -1.3282031780440816e-06 0.0
0.0 7.469333811823917e-07 0.0
0.0 3.5669423742656404e-06 0.0
0.0 4.0588679690215896e-06 0.0
0.0 -4.115110688442688e-07 0.0
0.0 -8.693434470961944e-06 0.0
0.0 -1.3515519394968887e-05 0.0
0.0 -1.945724891318859e-06 0.0
0.0 4.106516915781278e-05 0.0
0.0 0.00012748556121112053 0.0
0.0 0.0002616626047078462 0.0
0.0 0.00043836428428243446 0.0
0.0 0.0006440332840446364 0.0
0.0 0.0008604768257339137 0.0
0.0 0.0010693948046679189 0.0
0.0 0.0012561564244742995 0.0
0.0 0.0014118654841571753 0.0
0.0 0.001533572196636152 0.0
0.0 0.0016231118278174392 0.0
0.0 0.0016853064339597801 0.0
0.0 0.0017261917623583992 0.0
0.0 0.0017516757837988414 0.0
0.0 0.0017667581754182101 0.0
0.0 0.0017752425979694687 0.0
0.0 0.0017797823024820899 0.0
0.0 0.0017820936105047592 0.0
0.0 0.001783213392767451 0.0
0.0 0.0017837294921607386 0.0
0.0 0.0017839556714961344 0.0
0.0 0.001784049824704414 0.0
0.0 0.001784086978838904 0.0
0.0 0.0017841008670365103 0.0
0.0 0.0017841057766523566 0.0
0.0 0.0017841073934962883 0.0
0.0 0.0017841078949060272 0.0
0.0 0.0017841080513466172 0.0
0.0 0.0017841080864470493 0.0
0.0 0.0017841080919476654 0.0
0.0 0.0017841081040972167 0.0
0.0 0.001784108104128855 0.0
0.0 0.0017841081000081825 0.0
0.0 0.0017841081085533277 0.0
0.0 0.0017841081101157143 0.0
0.0 0.0017841081059985526 0.0
0.0 0.0017841081128993955 0.0
0.0 0.0017841081156092892 0.0
0.0 0.0017841081118536457 0.0
0.0 0.0017841081174363852 0.0
0.0 0.0017841081207297404 0.0
0.0 0.0017841081175079207 0.0
0.0 0.0017841081220820302 0.0
0.0 0.0017841081255868297 0.0
0.0 0.0017841081229358878 0.0
0.0 0.001784108126763352 0.0
0.0 0.0017841081302628033 0.0
0.0 0.001784108128123138 0.0
0.0 0.0017841081314362447 0.0
0.0 0.001784108134796571 0.0
0.0 0.001784108133073371 0.0
0.0 0.0017841081360776148 0.0
0.0 0.0017841081391866092 0.0
0.0 0.0017841081378234067 0.0
0.0 0.0017841081406477807 0.0
0.0 0.0017841081434374457 0.0
0.0 0.001784108142408811 0.0
0.0 0.0017841081450975739 0.0
0.0 0.0017841081475845832 0.0
0.0 0.0017841081468119968 0.0
0.0 0.0017841081494408663 0.0
0.0 0.0017841081516073174 0.0
0.0 0.0017841081510534844 0.0
0.0 0.0017841081536734854 0.0
0.0 0.0017841081554865997 0.0
0.0 0.0017841081551647365 0.0
0.0 0.0017841081577719717 0.0
0.0 0.0017841081592236405 0.0
0.0 0.0017841081591661286 0.0
0.0 0.0017841081617062087 0.0
0.0 0.0017841081628454493 0.0
0.0 0.0017841081630404702 0.0
0.0 0.0017841081654835257 0.0
0.0 0.0017841081663527237 0.0
0.0 0.0017841081667790447 0.0
0.0 0.0017841081691219985 0.0
0.0 0.0017841081697172708 0.0
0.0 0.00178410817041697 0.0
0.0 0.0017841081725877865 0.0
0.0 0.0017841081729610597 0.0
0.0 0.0017841081739526014 0.0
0.0 0.001784108175861793 0.0
0.0 0.001784108176113945 0.0
0.0 0.0017841081773624285 0.0
0.0 0.0017841081789457865 0.0
0.0 0.0017841081792007538 0.0
0.0 0.0017841081806039623 0.0
0.0 0.0017841081818826081 0.0
0.0 0.0017841081821927168 0.0
0.0 0.0017841081836879743 0.0
0.0 0.001784108184673093 0.0
0.0 0.0017841081850863238 0.0
0.0 0.0017841081866178212 0.0
0.0 0.0017841081873093579 0.0
0.0 0.001784108187899047 0.0
0.0 0.0017841081893697867 0.0
0.0 0.001784108189807864 0.0
0.0 0.001784108190637901 0.0
0.0 0.0017841081919082115 0.0
0.0 0.0017841081922191657 0.0
0.0 0.0017841081932644246 0.0
0.0 0.0017841081942347103 0.0
0.0 0.0017841081945842462 0.0
0.0 0.0017841081957135436 0.0
0.0 0.001784108196406424 0.0
0.0 0.0017841081968802436 0.0
0.0 0.0017841081979688273 0.0
0.0 0.001784108198461482 0.0
0.0 0.0017841081990744804 0.0
0.0 0.0017841082000379267 0.0
0.0 0.0017841082004183323 0.0
0.0 0.0017841082011366039 0.0
0.0 0.0017841082019466343 0.0
0.0 0.0017841082022624168 0.0
0.0 0.001784108203075974 0.0
0.0 0.0017841082036797206 0.0
0.0 0.0017841082040188547 0.0
0.0 0.0017841082048659996 0.0
0.0 0.001784108205249301 0.0
0.0 0.0017841082057009244 0.0
0.0 0.0017841082064737222 0.0
0.0 0.00178410820668641 0.0
0.0 0.0017841082073055932 0.0
0.0 0.0017841082078606484 0.0
0.0 0.0017841082080605865 0.0
0.0 0.0017841082087629828 0.0
0.0 0.001784108209062396 0.0
0.0 0.0017841082093886889 0.0
0.0 0.0017841082100139944 0.0
0.0 0.0017841082101460186 0.0
0.0 0.0017841082106355697 0.0
0.0 0.0017841082110385382 0.0
0.0 0.0017841082111804889 0.0
0.0 0.0017841082117163473 0.0
0.0 0.0017841082118959582 0.0
0.0 0.0017841082121595197 0.0
0.0 0.0017841082125848924 0.0
0.0 0.0017841082126568355 0.0
0.0 0.001784108213027851 0.0
0.0 0.0017841082132511142 0.0
0.0 0.001784108213362008 0.0
0.0 0.0017841082137149602 0.0
0.0 0.0017841082137797755 0.0
0.0 0.0017841082139832395 0.0
0.0 0.0017841082142017572 0.0
0.0 0.0017841082142234252 0.0
0.0 0.0017841082144640944 0.0
0.0 0.001784108214518496 0.0
0.0 0.0017841082145931767 0.0
0.0 0.0017841082147587648 0.0
0.0 0.0017841082147221935 0.0
0.0 0.0017841082148491135 0.0
0.0 0.001784108214871767 0.0
0.0 0.0017841082148437458 0.0
0.0 0.0017841082148437333 0.0
0.0 0.0017841082148717686 0.0
0.0 0.0017841082148490972 0.0
0.0 0.0017841082147221914 0.0
0.0 0.0017841082147587602 0.0
0.0 0.0017841082145931793 0.0
0.0 0.0017841082145184993 0.0
0.0 0.0017841082144640938 0.0
0.0 0.0017841082142234272 0.0
0.0 0.001784108214201761 0.0
0.0 0.0017841082139832484 0.0
0.0 0.0017841082137797593 0.0
0.0 0.001784108213714954 0.0
0.0 0.0017841082133620177 0.0
0.0 0.0017841082132511211 0.0
0.0 0.001784108213027837 0.0
0.0 0.0017841082126568407 0.0
0.0 0.0017841082125849036 0.0
0.0 0.0017841082121595095 0.0
0.0 0.0017841082118959732 0.0
0.0 0.0017841082117163619 0.0
0.0 0.001784108211180473 0.0
0.0 0.0017841082110385406 0.0
0.0 0.0017841082106355628 0.0
0.0 0.0017841082101460227 0.0
0.0 0.0017841082100139944 0.0
0.0 0.0017841082093886754 0.0
0.0 0.0017841082090623954 0.0
0.0 0.0017841082087629789 0.0
0.0 0.001784108208060588 0.0
0.0 0.0017841082078606351 0.0
0.0 0.0017841082073055902 0.0
0.0 0.0017841082066863939 0.0
0.0 0.0017841082064737094 0.0
0.0 0.0017841082057009317 0.0
0.0 0.0017841082052492934 0.0
0.0 0.0017841082048659948 0.0
0.0 0.0017841082040188534 0.0
0.0 0.0017841082036797265 0.0
0.0 0.0017841082030759737 0.0
0.0 0.0017841082022624164 0.0
0.0 0.0017841082019466347 0.0
0.0 0.001784108201136608 0.0
0.0 0.0017841082004183358 0.0
0.0 0.0017841082000379256 0.0
0.0 0.0017841081990744828 0.0
0.0 0.0017841081984614838 0.0
0.0 0.0017841081979688292 0.0
0.0 0.001784108196880239 0.0
0.0 0.0017841081964064098 0.0
0.0 0.0017841081957135497 0.0
0.0 0.0017841081945842608 0.0
0.0 0.0017841081942347235 0.0
0.0 0.0017841081932644311 0.0
0.0 0.0017841081922191527 0.0
0.0 0.0017841081919081983 0.0
0.0 0.0017841081906378963 0.0
0.0 0.001784108189807853 0.0
0.0 0.0017841081893697876 0.0
0.0 0.00178410818789906 0.0
0.0 0.0017841081873093498 0.0
0.0 0.001784108186617854 0.0
0.0 0.0017841081850863277 0.0