# vtk DataFile Version 2.0
data_909
ASCII
DATASET UNSTRUCTURED_GRID
POINTS 804 float
0.0 0.0 0.0
0.1 0.0 0.0
0.1 20.0 0.0
0.0 20.0 0.0
0.0 0.0 -0.1
0.1 0.0 -0.1
0.1 20.0 -0.1
0.0 20.0 -0.1
0.1 0.09999999999992462 0.0
0.1 0.1999999999998517 0.0
0.1 0.2999999999997818 0.0
0.1 0.399999999999712 0.0
0.1 0.4999999999996377 0.0
0.1 0.5999999999995541 0.0
0.1 0.6999999999994495 0.0
0.1 0.7999999999993355 0.0
0.1 0.8999999999992101 0.0
0.1 0.999999999999102 0.0
0.1 1.099999999999006 0.0
0.1 1.199999999998936 0.0
0.1 1.299999999998867 0.0
0.1 1.399999999998797 0.0
0.1 1.499999999998727 0.0
0.1 1.599999999998657 0.0
0.1 1.699999999998587 0.0
0.1 1.799999999998517 0.0
0.1 1.899999999998447 0.0
0.1 1.999999999998378 0.0
0.1 2.099999999998308 0.0
0.1 2.199999999998238 0.0
0.1 2.299999999998168 0.0
0.1 2.399999999998067 0.0
0.1 2.499999999997942 0.0
0.1 2.599999999997706 0.0
0.1 2.699999999997444 0.0
0.1 2.799999999997153 0.0
0.1 2.899999999996861 0.0
0.1 2.999999999996569 0.0
0.1 3.099999999996277 0.0
0.1 3.199999999995984 0.0
0.1 3.299999999995693 0.0
0.1 3.399999999995401 0.0
0.1 3.499999999995108 0.0
0.1 3.599999999994816 0.0
0.1 3.699999999994525 0.0
0.1 3.799999999994232 0.0
0.1 3.89999999999394 0.0
0.1 3.999999999993648 0.0
0.1 4.099999999993356 0.0
0.1 4.199999999993064 0.0
0.1 4.299999999992772 0.0
0.1 4.399999999992479 0.0
0.1 4.499999999992188 0.0
0.1 4.599999999991895 0.0
0.1 4.699999999991603 0.0
0.1 4.799999999991311 0.0
0.1 4.899999999991019 0.0
0.1 4.999999999990727 0.0
0.1 5.099999999990436 0.0
0.1 5.199999999990144 0.0
0.1 5.299999999989851 0.0
0.1 5.399999999989559 0.0
0.1 5.499999999989267 0.0
0.1 5.599999999988975 0.0
0.1 5.699999999988683 0.0
0.1 5.799999999988391 0.0
0.1 5.899999999988099 0.0
0.1 5.999999999987806 0.0
0.1 6.099999999987515 0.0
0.1 6.199999999987222 0.0
0.1 6.299999999986929 0.0
0.1 6.399999999986638 0.0
0.1 6.499999999986345 0.0
0.1 6.599999999986054 0.0
0.1 6.699999999985762 0.0
0.1 6.79999999998547 0.0
0.1 6.899999999985177 0.0
0.1 6.999999999984885 0.0
0.1 7.099999999984593 0.0
0.1 7.199999999984302 0.0
0.1 7.299999999984009 0.0
0.1 7.399999999983717 0.0
0.1 7.499999999983426 0.0
0.1 7.599999999983132 0.0
0.1 7.699999999982841 0.0
0.1 7.799999999982549 0.0
0.1 7.899999999982256 0.0
0.1 7.999999999982034 0.0
0.1 8.099999999981964 0.0
0.1 8.199999999982062 0.0
0.1 8.299999999982214 0.0
0.1 8.399999999982366 0.0
0.1 8.499999999982517 0.0
0.1 8.59999999998267 0.0
0.1 8.699999999982822 0.0
0.1 8.799999999982973 0.0
0.1 8.899999999983125 0.0
0.1 8.999999999983277 0.0
0.1 9.09999999998343 0.0
0.1 9.19999999998358 0.0
0.1 9.299999999983733 0.0
0.1 9.399999999983885 0.0
0.1 9.499999999984038 0.0
0.1 9.599999999984188 0.0
0.1 9.69999999998434 0.0
0.1 9.799999999984493 0.0
0.1 9.899999999984646 0.0
0.1 9.999999999984798 0.0
0.1 10.09999999998495 0.0
0.1 10.1999999999851 0.0
0.1 10.29999999998525 0.0
0.1 10.39999999998541 0.0
0.1 10.49999999998556 0.0
0.1 10.59999999998571 0.0
0.1 10.69999999998586 0.0
0.1 10.79999999998601 0.0
0.1 10.89999999998616 0.0
0.1 10.99999999998632 0.0
0.1 11.09999999998647 0.0
0.1 11.19999999998662 0.0
0.1 11.29999999998677 0.0
0.1 11.39999999998693 0.0
0.1 11.49999999998708 0.0
0.1 11.59999999998723 0.0
0.1 11.69999999998738 0.0
0.1 11.79999999998754 0.0
0.1 11.89999999998769 0.0
0.1 11.99999999998784 0.0
0.1 12.09999999998799 0.0
0.1 12.19999999998814 0.0
0.1 12.2999999999883 0.0
0.1 12.39999999998845 0.0
0.1 12.4999999999886 0.0
0.1 12.59999999998875 0.0
0.1 12.6999999999889 0.0
0.1 12.79999999998905 0.0
0.1 12.89999999998921 0.0
0.1 12.99999999998936 0.0
0.1 13.09999999998951 0.0
0.1 13.19999999998966 0.0
0.1 13.29999999998982 0.0
0.1 13.39999999998997 0.0
0.1 13.49999999999012 0.0
0.1 13.59999999999027 0.0
0.1 13.69999999999042 0.0
0.1 13.79999999999057 0.0
0.1 13.89999999999073 0.0
0.1 13.99999999999088 0.0
0.1 14.09999999999103 0.0
0.1 14.19999999999118 0.0
0.1 14.29999999999134 0.0
0.1 14.39999999999149 0.0
0.1 14.49999999999164 0.0
0.1 14.59999999999179 0.0
0.1 14.69999999999194 0.0
0.1 14.7999999999921 0.0
0.1 14.89999999999225 0.0
0.1 14.9999999999924 0.0
0.1 15.09999999999255 0.0
0.1 15.1999999999927 0.0
0.1 15.29999999999285 0.0
0.1 15.39999999999301 0.0
0.1 15.49999999999316 0.0
0.1 15.59999999999331 0.0
0.1 15.69999999999346 0.0
0.1 15.79999999999362 0.0
0.1 15.89999999999377 0.0
0.1 15.99999999999392 0.0
0.1 16.09999999999407 0.0
0.1 16.19999999999422 0.0
0.1 16.29999999999437 0.0
0.1 16.39999999999453 0.0
0.1 16.49999999999468 0.0
0.1 16.59999999999483 0.0
0.1 16.69999999999498 0.0
0.1 16.79999999999514 0.0
0.1 16.89999999999528 0.0
0.1 16.99999999999544 0.0
0.1 17.09999999999559 0.0
0.1 17.19999999999574 0.0
0.1 17.29999999999589 0.0
0.1 17.39999999999605 0.0
0.1 17.4999999999962 0.0
0.1 17.59999999999635 0.0
0.1 17.6999999999965 0.0
0.1 17.79999999999665 0.0
0.1 17.89999999999681 0.0
0.1 17.99999999999696 0.0
0.1 18.09999999999711 0.0
0.1 18.19999999999726 0.0
0.1 18.29999999999742 0.0
0.1 18.39999999999757 0.0
0.1 18.49999999999772 0.0
0.1 18.59999999999787 0.0
0.1 18.69999999999802 0.0
0.1 18.79999999999818 0.0
0.1 18.89999999999833 0.0
0.1 18.99999999999848 0.0
0.1 19.09999999999863 0.0
0.1 19.19999999999878 0.0
0.1 19.29999999999894 0.0
0.1 19.39999999999909 0.0
0.1 19.49999999999924 0.0
0.1 19.59999999999939 0.0
0.1 19.69999999999955 0.0
0.1 19.7999999999997 0.0
0.1 19.89999999999985 0.0
0.0 19.9 0.0
0.0 19.8 0.0
0.0 19.7 0.0
0.0 19.6 0.0
0.0 19.5 0.0
0.0 19.4 0.0
0.0 19.3 0.0
0.0 19.2 0.0
0.0 19.1 0.0
0.0 19.0 0.0
0.0 18.9 0.0
0.0 18.8 0.0
0.0 18.7 0.0
0.0 18.6 0.0
0.0 18.5 0.0
0.0 18.4 0.0
0.0 18.3 0.0
0.0 18.2 0.0
0.0 18.1 0.0
0.0 18.0 0.0
0.0 17.9 0.0
0.0 17.8 0.0
0.0 17.7 0.0
0.0 17.6 0.0
0.0 17.5 0.0
0.0 17.4 0.0
0.0 17.3 0.0
0.0 17.2 0.0
0.0 17.09999999999999 0.0
0.0 17.0 0.0
0.0 16.9 0.0
0.0 16.8 0.0
0.0 16.7 0.0
0.0 16.59999999999999 0.0
0.0 16.49999999999999 0.0
0.0 16.4 0.0
0.0 16.29999999999999 0.0
0.0 16.2 0.0
0.0 16.09999999999999 0.0
0.0 15.99999999999999 0.0
0.0 15.89999999999999 0.0
0.0 15.79999999999999 0.0
0.0 15.69999999999999 0.0
0.0 15.59999999999999 0.0
0.0 15.49999999999999 0.0
0.0 15.39999999999999 0.0
0.0 15.29999999999999 0.0
0.0 15.19999999999999 0.0
0.0 15.09999999999999 0.0
0.0 14.99999999999999 0.0
0.0 14.89999999999999 0.0
0.0 14.79999999999999 0.0
0.0 14.69999999999999 0.0
0.0 14.59999999999999 0.0
0.0 14.49999999999999 0.0
0.0 14.39999999999999 0.0
0.0 14.29999999999999 0.0
0.0 14.19999999999999 0.0
0.0 14.09999999999999 0.0
0.0 13.99999999999999 0.0
0.0 13.89999999999999 0.0
0.0 13.79999999999999 0.0
0.0 13.69999999999999 0.0
0.0 13.59999999999999 0.0
0.0 13.49999999999999 0.0
0.0 13.39999999999999 0.0
0.0 13.29999999999999 0.0
0.0 13.19999999999999 0.0
0.0 13.09999999999999 0.0
0.0 12.99999999999999 0.0
0.0 12.89999999999999 0.0
0.0 12.79999999999999 0.0
0.0 12.69999999999999 0.0
0.0 12.59999999999999 0.0
0.0 12.49999999999999 0.0
0.0 12.39999999999999 0.0
0.0 12.29999999999999 0.0
0.0 12.19999999999999 0.0
0.0 12.09999999999999 0.0
0.0 11.99999999999999 0.0
0.0 11.89999999999999 0.0
0.0 11.79999999999999 0.0
0.0 11.69999999999999 0.0
0.0 11.59999999999999 0.0
0.0 11.49999999999999 0.0
0.0 11.39999999999999 0.0
0.0 11.29999999999999 0.0
0.0 11.19999999999999 0.0
0.0 11.09999999999999 0.0
0.0 10.99999999999999 0.0
0.0 10.89999999999999 0.0
0.0 10.79999999999999 0.0
0.0 10.69999999999999 0.0
0.0 10.59999999999999 0.0
0.0 10.49999999999999 0.0
0.0 10.39999999999999 0.0
0.0 10.29999999999999 0.0
0.0 10.19999999999999 0.0
0.0 10.09999999999999 0.0
0.0 9.999999999999993 0.0
0.0 9.899999999999993 0.0
0.0 9.799999999999994 0.0
0.0 9.699999999999992 0.0
0.0 9.599999999999993 0.0
0.0 9.499999999999993 0.0
0.0 9.399999999999993 0.0
0.0 9.299999999999995 0.0
0.0 9.199999999999996 0.0
0.0 9.099999999999994 0.0
0.0 8.999999999999995 0.0
0.0 8.899999999999995 0.0
0.0 8.799999999999994 0.0
0.0 8.699999999999994 0.0
0.0 8.599999999999994 0.0
0.0 8.499999999999995 0.0
0.0 8.399999999999995 0.0
0.0 8.299999999999994 0.0
0.0 8.199999999999994 0.0
0.0 8.099999999999994 0.0
0.0 7.999999999999993 0.0
0.0 7.899999999999995 0.0
0.0 7.799999999999995 0.0
0.0 7.699999999999996 0.0
0.0 7.599999999999996 0.0
0.0 7.499999999999996 0.0
0.0 7.399999999999995 0.0
0.0 7.299999999999995 0.0
0.0 7.199999999999996 0.0
0.0 7.099999999999994 0.0
0.0 6.999999999999995 0.0
0.0 6.899999999999995 0.0
0.0 6.799999999999995 0.0
0.0 6.699999999999996 0.0
0.0 6.599999999999994 0.0
0.0 6.499999999999995 0.0
0.0 6.399999999999997 0.0
0.0 6.299999999999997 0.0
0.0 6.199999999999996 0.0
0.0 6.099999999999996 0.0
0.0 5.999999999999996 0.0
0.0 5.899999999999997 0.0
0.0 5.799999999999997 0.0
0.0 5.699999999999996 0.0
0.0 5.599999999999996 0.0
0.0 5.499999999999996 0.0
0.0 5.399999999999995 0.0
0.0 5.299999999999995 0.0
0.0 5.199999999999996 0.0
0.0 5.099999999999996 0.0
0.0 4.999999999999998 0.0
0.0 4.899999999999999 0.0
0.0 4.799999999999997 0.0
0.0 4.699999999999998 0.0
0.0 4.599999999999998 0.0
0.0 4.499999999999996 0.0
0.0 4.399999999999997 0.0
0.0 4.299999999999997 0.0
0.0 4.199999999999998 0.0
0.0 4.099999999999998 0.0
0.0 3.999999999999996 0.0
0.0 3.899999999999999 0.0
0.0 3.799999999999997 0.0
0.0 3.699999999999996 0.0
0.0 3.599999999999998 0.0
0.0 3.5 0.0
0.0 3.399999999999999 0.0
0.0 3.299999999999997 0.0
0.0 3.199999999999999 0.0
0.0 3.099999999999998 0.0
0.0 3.0 0.0
0.0 2.899999999999999 0.0
0.0 2.799999999999997 0.0
0.0 2.699999999999999 0.0
0.0 2.599999999999998 0.0
0.0 2.499999999999996 0.0
0.0 2.399999999999999 0.0
0.0 2.299999999999997 0.0
0.0 2.199999999999999 0.0
0.0 2.100000000000001 0.0
0.0 2.0 0.0
0.0 1.899999999999999 0.0
0.0 1.800000000000001 0.0
0.0 1.699999999999999 0.0
0.0 1.599999999999998 0.0
0.0 1.5 0.0
0.0 1.399999999999999 0.0
0.0 1.299999999999997 0.0
0.0 1.199999999999999 0.0
0.0 1.099999999999998 0.0
0.0 1.0 0.0
0.0 0.8999999999999986 0.0
0.0 0.8000000000000007 0.0
0.0 0.6999999999999993 0.0
0.0 0.6000000000000014 0.0
0.0 0.5 0.0
0.0 0.3999999999999986 0.0
0.0 0.3000000000000007 0.0
0.0 0.1999999999999993 0.0
[...]
POINT_DATA 804
VECTORS displacement double
0.0 0.0 0.0
0.0 0.0 0.0
0.0 0.0017839294695952415 0.0
0.0 0.0017839294695952473 0.0
0.0 0.0 0.0
0.0 0.0 0.0
0.0 0.0017839294695952313 0.0
0.0 0.0017839294695952475 0.0
0.0 -2.4243169587696113e-10 0.0
0.0 1.0195399949358105e-10 0.0
0.0 2.751962223578803e-10 0.0
0.0 -1.0647485441282221e-10 0.0
0.0 -1.522938519976784e-10 0.0
0.0 2.9693586723496767e-10 0.0
0.0 2.563507777071007e-10 0.0
0.0 -1.9852780814168625e-10 0.0
0.0 -2.09449524386893e-11 0.0
0.0 4.784369523266828e-10 0.0
0.0 2.0935075186517186e-10 0.0
0.0 -2.8678830720384107e-10 0.0
0.0 1.2526789379141742e-10 0.0
0.0 6.759223162953549e-10 0.0
0.0 1.5894540292526541e-10 0.0
0.0 -4.2135200545485864e-10 0.0
0.0 2.660295389518707e-10 0.0
0.0 9.603918983464294e-10 0.0
0.0 1.2198754249909788e-10 0.0
0.0 -6.935935601000881e-10 0.0
0.0 3.8047912962367363e-10 0.0
0.0 1.443243364573526e-09 0.0
0.0 1.4036148064376073e-10 0.0
0.0 -1.2350437671839093e-09 0.0
0.0 3.7560868722243267e-10 0.0
0.0 2.274698363600873e-09 0.0
0.0 4.0541386264349634e-10 0.0
0.0 -2.2045225405021668e-09 0.0
0.0 -1.0641230796397935e-10 0.0
0.0 3.58672067834442e-09 0.0
0.0 1.5316327099721547e-09 0.0
0.0 -3.6142804946634565e-09 0.0
0.0 -2.0391980934559822e-09 0.0
0.0 5.068178996612622e-09 0.0
0.0 4.927063356419185e-09 0.0
0.0 -4.440368178794287e-09 0.0
0.0 -7.206270167892671e-09 0.0
0.0 4.332157508084754e-09 0.0
0.0 1.2320087237863215e-08 0.0
0.0 -2.6255194357877753e-11 0.0
0.0 -1.603745532580966e-08 0.0
0.0 -6.42361673120956e-09 0.0
0.0 2.0132860555763245e-08 0.0
0.0 2.0439104159419143e-08 0.0
0.0 -1.6194404706813564e-08 0.0
0.0 -3.756337152360232e-08 0.0
0.0 1.0491647429965798e-09 0.0
0.0 5.603358518291441e-08 0.0
0.0 3.792680494113293e-08 0.0
0.0 -5.416301188808556e-08 0.0
0.0 -9.66101455510658e-08 0.0
0.0 5.268304332509398e-09 0.0
0.0 1.5238231107324713e-07 0.0
0.0 1.2736023239263732e-07 0.0
0.0 -1.184596942738653e-07 0.0
0.0 -3.153019621339072e-07 0.0
0.0 -1.3083967701161202e-07 0.0
0.0 3.7416926444671967e-07 0.0
0.0 6.381400812031453e-07 0.0
0.0 1.2313445269757583e-07 0.0
0.0 -9.43703030022092e-07 0.0
0.0 -1.4433963363881593e-06 0.0
0.0 -2.7395536444592734e-07 0.0
0.0 2.2807134810159273e-06 0.0
0.0 4.003296191495404e-06 0.0
0.0 1.9876641907210257e-06 0.0
0.0 -4.5822445484535135e-06 0.0
0.0 -1.1642973579485842e-05 0.0
0.0 -9.319909675776235e-06 0.0
0.0 1.615159616439943e-05 0.0
0.0 7.819615007624148e-05 0.0
0.0 0.00018514708195036336 0.0
0.0 0.00033701186506877103 0.0
0.0 0.0005250087408120729 0.0
0.0 0.0007338493843355967 0.0
0.0 0.0009456669244855584 0.0
0.0 0.0011440703155777864 0.0
0.0 0.0013170781916548308 0.0
0.0 0.001458357513922285 0.0
0.0 0.0015668832862808862 0.0
0.0 0.0016455758533688316 0.0
0.0 0.0016995839456953224 0.0
0.0 0.0017347426497815494 0.0
0.0 0.0017564885229817764 0.0
0.0 0.001769283583331633 0.0
0.0 0.0017764521766451477 0.0
0.0 0.0017802788663171451 0.0
0.0 0.001782225828681821 0.0
0.0 0.0017831700246096446 0.0
0.0 0.0017836063723488625 0.0
0.0 0.0017837984302027509 0.0
0.0 0.0017838788707262077 0.0
0.0 0.0017839108864544132 0.0
0.0 0.0017839229734796407 0.0
0.0 0.001783927292468576 0.0
0.0 0.0017839287470622423 0.0
0.0 0.001783929207517873 0.0
0.0 0.0017839293448677338 0.0
0.0 0.001783929382502521 0.0
0.0 0.0017839293929140096 0.0
0.0 0.0017839293968966135 0.0
0.0 0.001783929398155881 0.0
0.0 0.0017839293997070486 0.0
0.0 0.0017839294015595773 0.0
0.0 0.0017839294024464267 0.0
0.0 0.0017839294040350082 0.0
0.0 0.0017839294057058618 0.0
0.0 0.0017839294065837051 0.0
0.0 0.0017839294082371351 0.0
0.0 0.0017839294097053615 0.0
0.0 0.0017839294106147612 0.0
0.0 0.0017839294122930704 0.0
0.0 0.0017839294135586334 0.0
0.0 0.00178392941454381 0.0
0.0 0.001783929416187161 0.0
0.0 0.0017839294172830524 0.0
0.0 0.0017839294183605602 0.0
0.0 0.001783929419917791 0.0
0.0 0.0017839294208896984 0.0
0.0 0.0017839294220522016 0.0
0.0 0.0017839294234920666 0.0
0.0 0.0017839294243788312 0.0
0.0 0.00178392942561546 0.0
0.0 0.0017839294269109943 0.0
0.0 0.0017839294277528684 0.0
0.0 0.0017839294290493575 0.0
0.0 0.001783929430166681 0.0
0.0 0.0017839294310314452 0.0
0.0 0.001783929432328175 0.0
0.0 0.0017839294332792008 0.0
0.0 0.001783929434210495 0.0
0.0 0.0017839294354381461 0.0
0.0 0.0017839294362711996 0.0
0.0 0.0017839294372729042 0.0
0.0 0.0017839294383803664 0.0
0.0 0.0017839294391582274 0.0
0.0 0.0017839294401954732 0.0
0.0 0.0017839294411733603 0.0
0.0 0.0017839294419331468 0.0
0.0 0.0017839294429759032 0.0
0.0 0.0017839294438209614 0.0
0.0 0.0017839294445977177 0.0
0.0 0.0017839294456068228 0.0
0.0 0.0017839294463294702 0.0
0.0 0.0017839294471550021 0.0
0.0 0.0017839294480734332 0.0
0.0 0.0017839294487189525 0.0
0.0 0.0017839294495919644 0.0
0.0 0.0017839294503714663 0.0
0.0 0.0017839294510114507 0.0
0.0 0.0017839294518790948 0.0
0.0 0.0017839294525216773 0.0
0.0 0.0017839294532077346 0.0
0.0 0.0017839294539928783 0.0
0.0 0.0017839294545595236 0.0
0.0 0.0017839294552772283 0.0
0.0 0.0017839294559451467 0.0
0.0 0.001783929456494884 0.0
0.0 0.0017839294571969147 0.0
0.0 0.0017839294577576073 0.0
0.0 0.0017839294583195935 0.0
0.0 0.0017839294589579602 0.0
0.0 0.001783929459450179 0.0
0.0 0.0017839294600131643 0.0
0.0 0.0017839294605727547 0.0
0.0 0.0017839294610204517 0.0
0.0 0.0017839294615726595 0.0
0.0 0.0017839294620426076 0.0
0.0 0.0017839294624729994 0.0
0.0 0.0017839294629888869 0.0
0.0 0.00178392946337567 0.0
0.0 0.0017839294638062834 0.0
0.0 0.0017839294642559196 0.0
0.0 0.0017839294645806518 0.0
0.0 0.0017839294650171145 0.0
0.0 0.0017839294653649634 0.0
0.0 0.0017839294656783414 0.0
0.0 0.0017839294660799917 0.0
0.0 0.0017839294663348007 0.0
0.0 0.0017839294666657254 0.0
0.0 0.0017839294669803874 0.0
0.0 0.0017839294671899077 0.0
0.0 0.0017839294675220294 0.0
0.0 0.001783929467722869 0.0
0.0 0.0017839294679471746 0.0
0.0 0.0017839294682143899 0.0
0.0 0.0017839294683423615 0.0
0.0 0.0017839294685849858 0.0
0.0 0.0017839294687414342 0.0
0.0 0.0017839294688617505 0.0
0.0 0.0017839294690708684 0.0
0.0 0.0017839294691284811 0.0
0.0 0.001783929469276618 0.0
0.0 0.0017839294693846636 0.0
0.0 0.0017839294694123754 0.0
0.0 0.0017839294695495105 0.0
0.0 0.0017839294695478744 0.0
0.0 0.0017839294695965362 0.0
0.0 0.001783929469654768 0.0
0.0 0.0017839294696547683 0.0
0.0 0.0017839294695965189 0.0
0.0 0.001783929469547872 0.0
0.0 0.0017839294695495287 0.0
0.0 0.0017839294694123747 0.0
0.0 0.001783929469384663 0.0
0.0 0.0017839294692766228 0.0
0.0 0.0017839294691284775 0.0
0.0 0.0017839294690708688 0.0
0.0 0.0017839294688617616 0.0
0.0 0.0017839294687414355 0.0
0.0 0.0017839294685849743 0.0
0.0 0.0017839294683423708 0.0
0.0 0.0017839294682143742 0.0
0.0 0.0017839294679471579 0.0
0.0 0.0017839294677228605 0.0
0.0 0.0017839294675220379 0.0
0.0 0.0017839294671899153 0.0
0.0 0.0017839294669804045 0.0
0.0 0.0017839294666657363 0.0
0.0 0.0017839294663347977 0.0
0.0 0.0017839294660799913 0.0
0.0 0.0017839294656783456 0.0
0.0 0.0017839294653649615 0.0
0.0 0.0017839294650171126 0.0
0.0 0.0017839294645806607 0.0
0.0 0.001783929464255916 0.0
0.0 0.0017839294638062903 0.0
0.0 0.0017839294633756816 0.0
0.0 0.001783929462988889 0.0
0.0 0.0017839294624730133 0.0
0.0 0.0017839294620426002 0.0
0.0 0.0017839294615726563 0.0
0.0 0.0017839294610204487 0.0
0.0 0.0017839294605727569 0.0
0.0 0.0017839294600131591 0.0
0.0 0.0017839294594501585 0.0
0.0 0.0017839294589579563 0.0
0.0 0.0017839294583195861 0.0
0.0 0.0017839294577576023 0.0
0.0 0.0017839294571969184 0.0
0.0 0.0017839294564948817 0.0
0.0 0.0017839294559451398 0.0
0.0 0.0017839294552772457 0.0
0.0 0.0017839294545595112 0.0
0.0 0.0017839294539928748 0.0
0.0 0.0017839294532077342 0.0
0.0 0.0017839294525216869 0.0
0.0 0.0017839294518790945 0.0
0.0 0.001783929451011451 0.0
0.0 0.00178392945037148 0.0
0.0 0.0017839294495919672 0.0
0.0 0.001783929448718946 0.0
0.0 0.0017839294480734192 0.0
0.0 0.0017839294471550188 0.0
0.0 0.0017839294463294795 0.0
0.0 0.0017839294456068462 0.0
0.0 0.0017839294445977242 0.0
0.0 0.0017839294438209605 0.0
0.0 0.0017839294429758926 0.0
0.0 0.0017839294419331572 0.0
0.0 0.0017839294411733542 0.0
0.0 0.0017839294401954728 0.0
0.0 0.001783929439158235 0.0
0.0 0.0017839294383803583 0.0
0.0 0.0017839294372729052 0.0
0.0 0.0017839294362712117 0.0
0.0 0.0017839294354381463 0.0
0.0 0.0017839294342104986 0.0
0.0 0.0017839294332792062 0.0
0.0 0.0017839294323281722 0.0
0.0 0.0017839294310314422 0.0
0.0 0.0017839294301666966 0.0
0.0 0.001783929429049347 0.0
0.0 0.0017839294277528653 0.0
0.0 0.0017839294269109982 0.0
0.0 0.0017839294256154462 0.0
0.0 0.0017839294243788347 0.0
0.0 0.0017839294234920514 0.0
0.0 0.001783929422052207 0.0
0.0 0.001783929420889721 0.0
0.0 0.0017839294199177883 0.0
0.0 0.0017839294183605674 0.0
0.0 0.0017839294172830623 0.0
0.0 0.0017839294161871577 0.0
0.0 0.0017839294145438054 0.0
0.0 0.0017839294135586267 0.0
0.0 0.00178392941229308 0.0
0.0 0.0017839294106147493 0.0
0.0 0.0017839294097053758 0.0
0.0 0.0017839294082371364 0.0
0.0 0.0017839294065836993 0.0
0.0 0.0017839294057058678 0.0
0.0 0.0017839294040350052 0.0
0.0 0.0017839294024464324 0.0
0.0 0.001783929401559569 0.0
0.0 0.0017839293997070683 0.0
0.0 0.0017839293981558961 0.0
0.0 0.0017839293968966205 0.0
0.0 0.0017839293929139976 0.0
0.0 0.0017839293825025239 0.0
0.0 0.0017839293448677386 0.0
0.0 0.0017839292075178855 0.0
0.0 0.0017839287470622427 0.0
0.0 0.0017839272924685744 0.0
0.0 0.001783922973479649 0.0
0.0 0.0017839108864544085 0.0
0.0 0.0017838788707262225 0.0
0.0 0.001783798430202772 0.0
0.0 0.0017836063723489163 0.0
0.0 0.0017831700246097538 0.0
0.0 0.00178222582868205 0.0
0.0 0.0017802788663175988 0.0
0.0 0.0017764521766460582 0.0
0.0 0.0017692835833332957 0.0
0.0 0.0017564885229847053 0.0
0.0 0.001734742649786461 0.0
0.0 0.0016995839457031225 0.0
0.0 0.0016455758533806257 0.0
0.0 0.0015668832862975968 0.0
0.0 0.0014583575139444065 0.0
0.0 0.0013170781916823624 0.0
0.0 0.0011440703156099347 0.0
0.0 0.0009456669245205674 0.0
0.0 0.000733849384370943 0.0
0.0 0.0005250087408448249 0.0
0.0 0.0003370118650962503 0.0
0.0 0.00018514708197077685 0.0
0.0 7.819615008910673e-05 0.0
0.0 1.6151596170705046e-05 0.0
0.0 -9.319909674065147e-06 0.0
0.0 -1.1642973580134636e-05 0.0
0.0 -4.582244549596144e-06 0.0
0.0 1.9876641900857125e-06 0.0
0.0 4.0032961915372846e-06 0.0
0.0 2.2807134813587787e-06 0.0
0.0 -2.739553641708104e-07 0.0
0.0 -1.4433963363621731e-06 0.0
0.0 -9.437030301466805e-07 0.0
0.0 1.2313445258826435e-07 0.0
0.0 6.381400811841386e-07 0.0
0.0 3.741692645027467e-07 0.0
0.0 -1.3083967696911153e-07 0.0
0.0 -3.153019621367099e-07 0.0
0.0 -1.184596943059621e-07 0.0
0.0 1.273602323828581e-07 0.0
0.0 1.523823110814236e-07 0.0
0.0 5.268304350060271e-09 0.0
0.0 -9.661014554567427e-08 0.0
0.0 -5.416301189800747e-08 0.0
0.0 3.7926804929944976e-08 0.0
0.0 5.6033585192052486e-08 0.0
0.0 1.0491647537955962e-09 0.0
0.0 -3.756337152575e-08 0.0
0.0 -1.6194404713958697e-08 0.0
0.0 2.0439104153739857e-08 0.0
0.0 2.0132860552911987e-08 0.0
0.0 -6.4236167301735e-09 0.0
0.0 -1.603745532972371e-08 0.0
0.0 -2.6255193877122077e-11 0.0
0.0 1.2320087235698814e-08 0.0
0.0 4.332157509513173e-09 0.0
0.0 -7.20627016722892e-09 0.0
0.0 -4.4403681776406904e-09 0.0
0.0 4.927063352324748e-09 0.0
0.0 5.0681789956380924e-09 0.0
0.0 -2.039198095116595e-09 0.0
0.0 -3.614280493939084e-09 0.0
0.0 1.5316327130340754e-09 0.0
0.0 3.5867206769894087e-09 0.0
0.0 -1.0641230439684978e-10 0.0
0.0 -2.2045225388750525e-09 0.0
0.0 4.0541386476706754e-10 0.0
0.0 2.2746983619757074e-09 0.0
0.0 3.756086869994203e-10 0.0
0.0 -1.235043768095294e-09 0.0
0.0 1.403614820201166e-10 0.0
0.0 1.4432433650225771e-09 0.0
0.0 3.804791303616209e-10 0.0
0.0 -6.935935626738783e-10 0.0
0.0 1.2198753943599909e-10 0.0
0.0 9.60391896153177e-10 0.0
0.0 2.660295373944319e-10 0.0
0.0 -4.2135200446448765e-10 0.0
0.0 1.5894540285827782e-10 0.0
0.0 6.759223161102297e-10 0.0
0.0 1.2526789447783625e-10 0.0
0.0 -2.8678830539239235e-10 0.0
0.0 2.0935075229624833e-10 0.0
0.0 4.78436949781288e-10 0.0
0.0 -2.0944950699313307e-11 0.0
0.0 -1.9852780723630616e-10 0.0
0.0 2.5635077676437856e-10 0.0
0.0 2.9693586879801043e-10 0.0
0.0 -1.5229385175217428e-10 0.0
0.0 -1.0647485552841984e-10 0.0
0.0 2.75196221640538e-10 0.0
0.0 1.0195400136251575e-10 0.0
0.0 -2.4243169438581717e-10 0.0
0.0 -2.424316954680958e-10 0.0
0.0 1.0195399963996371e-10 0.0
0.0 2.7519622171053207e-10 0.0
0.0 -1.0647485555189815e-10 0.0
0.0 -1.522938528168371e-10 0.0
0.0 2.969358668998881e-10 0.0
0.0 2.563507770841018e-10 0.0
0.0 -1.9852780712601977e-10 0.0
0.0 -2.094495326971938e-11 0.0
0.0 4.784369511605353e-10 0.0
0.0 2.0935075350915585e-10 0.0
0.0 -2.867883064989133e-10 0.0
0.0 1.25267895279201e-10 0.0
0.0 6.75922319181175e-10 0.0
0.0 1.5894540577681703e-10 0.0
0.0 -4.213520026785041e-10 0.0
0.0 2.6602953935532095e-10 0.0
0.0 9.603918975428315e-10 0.0
0.0 1.2198754068157587e-10 0.0
0.0 -6.935935606520647e-10 0.0
0.0 3.804791310213886e-10 0.0
0.0 1.4432433646317448e-09 0.0
0.0 1.403614817763592e-10 0.0
0.0 -1.2350437684436348e-09 0.0
0.0 3.7560868698403715e-10 0.0
0.0 2.2746983613725567e-09 0.0
0.0 4.054138637422984e-10 0.0
0.0 -2.2045225381138734e-09 0.0
0.0 -1.064123040538898e-10 0.0
0.0 3.5867206749527593e-09 0.0
0.0 1.531632711163508e-09 0.0
0.0 -3.614280495458592e-09 0.0
0.0 -2.039198092715948e-09 0.0
0.0 5.068178994076145e-09 0.0
0.0 4.927063352251715e-09 0.0
0.0 -4.440368176405019e-09 0.0
0.0 -7.206270169051124e-09 0.0
0.0 4.332157505323799e-09 0.0
0.0 1.23200872337401e-08 0.0
0.0 -2.625519342474395e-11 0.0
0.0 -1.6037455329447727e-08 0.0
0.0 -6.423616727888069e-09 0.0
0.0 2.013286055225544e-08 0.0
0.0 2.0439104158241622e-08 0.0
0.0 -1.6194404708668248e-08 0.0
0.0 -3.756337152249736e-08 0.0
0.0 1.0491647483243192e-09 0.0
0.0 5.603358518774241e-08 0.0
0.0 3.7926804937965795e-08 0.0
0.0 -5.4163011888578835e-08 0.0
0.0 -9.661014554686535e-08 0.0
0.0 5.268304332793223e-09 0.0
0.0 1.5238231106954695e-07 0.0
0.0 1.2736023239836409e-07 0.0
0.0 -1.1845969427328202e-07 0.0
0.0 -3.153019621291828e-07 0.0
0.0 -1.3083967701446062e-07 0.0
0.0 3.741692644516922e-07 0.0
0.0 6.381400811943469e-07 0.0
0.0 1.2313445269579505e-07 0.0
0.0 -9.437030300210718e-07 0.0
0.0 -1.4433963363892174e-06 0.0
0.0 -2.73955364445558e-07 0.0
0.0 2.2807134809992103e-06 0.0
0.0 4.00329619150194e-06 0.0
0.0 1.9876641907170455e-06 0.0
0.0 -4.582244548449263e-06 0.0
0.0 -1.1642973579483374e-05 0.0
0.0 -9.31990967575624e-06 0.0
0.0 1.6151596164403632e-05 0.0
0.0 7.819615007622768e-05 0.0
0.0 0.0001851470819503722 0.0
0.0 0.0003370118650687701 0.0
0.0 0.0005250087408120761 0.0
0.0 0.000733849384335603 0.0
0.0 0.0009456669244855506 0.0
0.0 0.001144070315577811 0.0
0.0 0.001317078191654845 0.0
0.0 0.0014583575139222721 0.0
0.0 0.0015668832862809129 0.0
0.0 0.0016455758533688262 0.0
0.0 0.0016995839456953046 0.0
0.0 0.0017347426497815494 0.0
0.0 0.0017564885229817814 0.0
0.0 0.0017692835833316384 0.0
0.0 0.00177645217664515 0.0
0.0 0.0017802788663171466 0.0
0.0 0.0017822258286818253 0.0
0.0 0.001783170024609649 0.0
0.0 0.0017836063723488682 0.0
0.0 0.001783798430202747 0.0
0.0 0.0017838788707262119 0.0
0.0 0.0017839108864544171 0.0
0.0 0.0017839229734796398 0.0
0.0 0.001783927292468572 0.0
0.0 0.0017839287470622343 0.0
0.0 0.0017839292075178814 0.0
0.0 0.0017839293448677356 0.0
0.0 0.001783929382502519 0.0
0.0 0.001783929392913999 0.0
0.0 0.0017839293968966146 0.0
0.0 0.0017839293981558907 0.0
0.0 0.0017839293997070698 0.0
0.0 0.001783929401559557 0.0
0.0 0.0017839294024464174 0.0
0.0 0.0017839294040350021 0.0
0.0 0.0017839294057058694 0.0
0.0 0.001783929406583698 0.0
0.0 0.001783929408237134 0.0
0.0 0.0017839294097053671 0.0
0.0 0.0017839294106147487 0.0
0.0 0.001783929412293074 0.0
0.0 0.0017839294135586277 0.0
0.0 0.0017839294145438052 0.0
0.0 0.0017839294161871547 0.0
0.0 0.0017839294172830647 0.0
0.0 0.0017839294183605585 0.0
0.0 0.0017839294199177695 0.0
0.0 0.0017839294208897012 0.0
0.0 0.0017839294220522114 0.0
0.0 0.0017839294234920505 0.0
0.0 0.0017839294243788334 0.0
0.0 0.0017839294256154512 0.0
0.0 0.0017839294269109977 0.0
0.0 0.0017839294277528684 0.0
0.0 0.0017839294290493397 0.0
0.0 0.001783929430166681 0.0
0.0 0.001783929431031424 0.0
0.0 0.0017839294323281668 0.0
0.0 0.0017839294332792138 0.0
0.0 0.0017839294342105042 0.0
0.0 0.0017839294354381411 0.0
0.0 0.0017839294362712139 0.0
0.0 0.0017839294372729013 0.0
0.0 0.0017839294383803566 0.0
0.0 0.0017839294391582335 0.0
0.0 0.0017839294401954691 0.0
0.0 0.0017839294411733668 0.0
0.0 0.0017839294419331588 0.0
0.0 0.0017839294429758997 0.0
0.0 0.0017839294438209616 0.0
0.0 0.0017839294445977155 0.0
0.0 0.001783929445606839 0.0
0.0 0.0017839294463294706 0.0
0.0 0.0017839294471550093 0.0
0.0 0.001783929448073423 0.0
0.0 0.0017839294487189494 0.0
0.0 0.001783929449591962 0.0
0.0 0.0017839294503714865 0.0
0.0 0.0017839294510114529 0.0
0.0 0.0017839294518790954 0.0
0.0 0.0017839294525216767 0.0
0.0 0.0017839294532077323 0.0
0.0 0.0017839294539928729 0.0
0.0 0.0017839294545595095 0.0
0.0 0.0017839294552772335 0.0
0.0 0.0017839294559451407 0.0
0.0 0.0017839294564948721 0.0
0.0 0.0017839294571969123 0.0
0.0 0.0017839294577575906 0.0
0.0 0.0017839294583195788 0.0
0.0 0.001783929458957968 0.0
0.0 0.0017839294594501674 0.0
0.0 0.001783929460013166 0.0
0.0 0.001783929460572764 0.0
0.0 0.0017839294610204604 0.0
0.0 0.001783929461572664 0.0
0.0 0.0017839294620426063 0.0
0.0 0.001783929462473007 0.0
0.0 0.0017839294629888851 0.0
0.0 0.001783929463375672 0.0
0.0 0.0017839294638062795 0.0
0.0 0.0017839294642559252 0.0
0.0 0.0017839294645806542 0.0
0.0 0.001783929465017119 0.0
0.0 0.0017839294653649602 0.0
0.0 0.001783929465678351 0.0
0.0 0.0017839294660799954 0.0
0.0 0.0017839294663348035 0.0
0.0 0.0017839294666657248 0.0
0.0 0.001783929466980401 0.0
0.0 0.0017839294671898995 0.0
0.0 0.0017839294675220296 0.0
0.0 0.0017839294677228596 0.0
0.0 0.0017839294679471553 0.0
0.0 0.0017839294682143643 0.0
0.0 0.0017839294683423585 0.0
0.0 0.0017839294685849777 0.0
0.0 0.0017839294687414396 0.0
0.0 0.0017839294688617598 0.0
0.0 0.0017839294690708595 0.0
0.0 0.0017839294691284785 0.0
0.0 0.001783929469276629 0.0
0.0 0.0017839294693846668 0.0
0.0 0.0017839294694123689 0.0
0.0 0.001783929469549536 0.0
0.0 0.001783929469547875 0.0
0.0 0.0017839294695965325 0.0
0.0 0.0017839294696547726 0.0
0.0 0.0017839294696547637 0.0
0.0 0.0017839294695965264 0.0
0.0 0.0017839294695478703 0.0
0.0 0.0017839294695495107 0.0
0.0 0.0017839294694123732 0.0
0.0 0.0017839294693846642 0.0
0.0 0.0017839294692766224 0.0
0.0 0.001783929469128491 0.0
0.0 0.0017839294690708825 0.0
0.0 0.001783929468861746 0.0
0.0 0.001783929468741442 0.0
0.0 0.001783929468584983 0.0
0.0 0.001783929468342356 0.0
0.0 0.0017839294682143844 0.0
0.0 0.0017839294679471696 0.0
0.0 0.001783929467722863 0.0
0.0 0.001783929467522033 0.0
0.0 0.0017839294671899242 0.0
0.0 0.001783929466980406 0.0
0.0 0.0017839294666657309 0.0
0.0 0.0017839294663347977 0.0
0.0 0.0017839294660799928 0.0
0.0 0.0017839294656783464 0.0
0.0 0.001783929465364958 0.0
0.0 0.0017839294650171165 0.0
0.0 0.0017839294645806579 0.0
0.0 0.0017839294642559287 0.0
0.0 0.0017839294638062866 0.0
0.0 0.0017839294633756834 0.0
0.0 0.00178392946298889 0.0
0.0 0.0017839294624730014 0.0
0.0 0.001783929462042595 0.0
0.0 0.001783929461572651 0.0
0.0 0.0017839294610204502 0.0
0.0 0.0017839294605727577 0.0
0.0 0.001783929460013157 0.0
0.0 0.0017839294594501707 0.0
0.0 0.0017839294589579479 0.0
0.0 0.0017839294583195788 0.0
0.0 0.0017839294577575945 0.0
0.0 0.0017839294571969223 0.0
0.0 0.001783929456494888 0.0
0.0 0.001783929455945142 0.0
0.0 0.0017839294552772305 0.0
0.0 0.0017839294545595218 0.0
0.0 0.0017839294539928718 0.0
0.0 0.0017839294532077266 0.0
0.0 0.0017839294525216715 0.0
0.0 0.0017839294518791052 0.0
0.0 0.0017839294510114583 0.0
0.0 0.00178392945037148 0.0
0.0 0.00178392944959196 0.0
0.0 0.0017839294487189499 0.0
0.0 0.0017839294480734306 0.0
0.0 0.0017839294471550108 0.0
0.0 0.0017839294463294654 0.0
0.0 0.0017839294456068197 0.0
0.0 0.001783929444597722 0.0
0.0 0.0017839294438209555 0.0