# vtk DataFile Version 2.0
data_575
ASCII
DATASET UNSTRUCTURED_GRID
POINTS 804 float
0.0 0.0 0.0
0.1 0.0 0.0
0.1 20.0 0.0
0.0 20.0 0.0
0.0 0.0 -0.1
0.1 0.0 -0.1
0.1 20.0 -0.1
0.0 20.0 -0.1
0.1 0.09999999999992462 0.0
0.1 0.1999999999998517 0.0
0.1 0.2999999999997818 0.0
0.1 0.399999999999712 0.0
0.1 0.4999999999996377 0.0
0.1 0.5999999999995541 0.0
0.1 0.6999999999994495 0.0
0.1 0.7999999999993355 0.0
0.1 0.8999999999992101 0.0
0.1 0.999999999999102 0.0
0.1 1.099999999999006 0.0
0.1 1.199999999998936 0.0
0.1 1.299999999998867 0.0
0.1 1.399999999998797 0.0
0.1 1.499999999998727 0.0
0.1 1.599999999998657 0.0
0.1 1.699999999998587 0.0
0.1 1.799999999998517 0.0
0.1 1.899999999998447 0.0
0.1 1.999999999998378 0.0
0.1 2.099999999998308 0.0
0.1 2.199999999998238 0.0
0.1 2.299999999998168 0.0
0.1 2.399999999998067 0.0
0.1 2.499999999997942 0.0
0.1 2.599999999997706 0.0
0.1 2.699999999997444 0.0
0.1 2.799999999997153 0.0
0.1 2.899999999996861 0.0
0.1 2.999999999996569 0.0
0.1 3.099999999996277 0.0
0.1 3.199999999995984 0.0
0.1 3.299999999995693 0.0
0.1 3.399999999995401 0.0
0.1 3.499999999995108 0.0
0.1 3.599999999994816 0.0
0.1 3.699999999994525 0.0
0.1 3.799999999994232 0.0
0.1 3.89999999999394 0.0
0.1 3.999999999993648 0.0
0.1 4.099999999993356 0.0
0.1 4.199999999993064 0.0
0.1 4.299999999992772 0.0
0.1 4.399999999992479 0.0
0.1 4.499999999992188 0.0
0.1 4.599999999991895 0.0
0.1 4.699999999991603 0.0
0.1 4.799999999991311 0.0
0.1 4.899999999991019 0.0
0.1 4.999999999990727 0.0
0.1 5.099999999990436 0.0
0.1 5.199999999990144 0.0
0.1 5.299999999989851 0.0
0.1 5.399999999989559 0.0
0.1 5.499999999989267 0.0
0.1 5.599999999988975 0.0
0.1 5.699999999988683 0.0
0.1 5.799999999988391 0.0
0.1 5.899999999988099 0.0
0.1 5.999999999987806 0.0
0.1 6.099999999987515 0.0
0.1 6.199999999987222 0.0
0.1 6.299999999986929 0.0
0.1 6.399999999986638 0.0
0.1 6.499999999986345 0.0
0.1 6.599999999986054 0.0
0.1 6.699999999985762 0.0
0.1 6.79999999998547 0.0
0.1 6.899999999985177 0.0
0.1 6.999999999984885 0.0
0.1 7.099999999984593 0.0
0.1 7.199999999984302 0.0
0.1 7.299999999984009 0.0
0.1 7.399999999983717 0.0
0.1 7.499999999983426 0.0
0.1 7.599999999983132 0.0
0.1 7.699999999982841 0.0
0.1 7.799999999982549 0.0
0.1 7.899999999982256 0.0
0.1 7.999999999982034 0.0
0.1 8.099999999981964 0.0
0.1 8.199999999982062 0.0
0.1 8.299999999982214 0.0
0.1 8.399999999982366 0.0
0.1 8.499999999982517 0.0
0.1 8.59999999998267 0.0
0.1 8.699999999982822 0.0
0.1 8.799999999982973 0.0
0.1 8.899999999983125 0.0
0.1 8.999999999983277 0.0
0.1 9.09999999998343 0.0
0.1 9.19999999998358 0.0
0.1 9.299999999983733 0.0
0.1 9.399999999983885 0.0
0.1 9.499999999984038 0.0
0.1 9.599999999984188 0.0
0.1 9.69999999998434 0.0
0.1 9.799999999984493 0.0
0.1 9.899999999984646 0.0
0.1 9.999999999984798 0.0
0.1 10.09999999998495 0.0
0.1 10.1999999999851 0.0
0.1 10.29999999998525 0.0
0.1 10.39999999998541 0.0
0.1 10.49999999998556 0.0
0.1 10.59999999998571 0.0
0.1 10.69999999998586 0.0
0.1 10.79999999998601 0.0
0.1 10.89999999998616 0.0
0.1 10.99999999998632 0.0
0.1 11.09999999998647 0.0
0.1 11.19999999998662 0.0
0.1 11.29999999998677 0.0
0.1 11.39999999998693 0.0
0.1 11.49999999998708 0.0
0.1 11.59999999998723 0.0
0.1 11.69999999998738 0.0
0.1 11.79999999998754 0.0
0.1 11.89999999998769 0.0
0.1 11.99999999998784 0.0
0.1 12.09999999998799 0.0
0.1 12.19999999998814 0.0
0.1 12.2999999999883 0.0
0.1 12.39999999998845 0.0
0.1 12.4999999999886 0.0
0.1 12.59999999998875 0.0
0.1 12.6999999999889 0.0
0.1 12.79999999998905 0.0
0.1 12.89999999998921 0.0
0.1 12.99999999998936 0.0
0.1 13.09999999998951 0.0
0.1 13.19999999998966 0.0
0.1 13.29999999998982 0.0
0.1 13.39999999998997 0.0
0.1 13.49999999999012 0.0
0.1 13.59999999999027 0.0
0.1 13.69999999999042 0.0
0.1 13.79999999999057 0.0
0.1 13.89999999999073 0.0
0.1 13.99999999999088 0.0
0.1 14.09999999999103 0.0
0.1 14.19999999999118 0.0
0.1 14.29999999999134 0.0
0.1 14.39999999999149 0.0
0.1 14.49999999999164 0.0
0.1 14.59999999999179 0.0
0.1 14.69999999999194 0.0
0.1 14.7999999999921 0.0
0.1 14.89999999999225 0.0
0.1 14.9999999999924 0.0
0.1 15.09999999999255 0.0
0.1 15.1999999999927 0.0
0.1 15.29999999999285 0.0
0.1 15.39999999999301 0.0
0.1 15.49999999999316 0.0
0.1 15.59999999999331 0.0
0.1 15.69999999999346 0.0
0.1 15.79999999999362 0.0
0.1 15.89999999999377 0.0
0.1 15.99999999999392 0.0
0.1 16.09999999999407 0.0
0.1 16.19999999999422 0.0
0.1 16.29999999999437 0.0
0.1 16.39999999999453 0.0
0.1 16.49999999999468 0.0
0.1 16.59999999999483 0.0
0.1 16.69999999999498 0.0
0.1 16.79999999999514 0.0
0.1 16.89999999999528 0.0
0.1 16.99999999999544 0.0
0.1 17.09999999999559 0.0
0.1 17.19999999999574 0.0
0.1 17.29999999999589 0.0
0.1 17.39999999999605 0.0
0.1 17.4999999999962 0.0
0.1 17.59999999999635 0.0
0.1 17.6999999999965 0.0
0.1 17.79999999999665 0.0
0.1 17.89999999999681 0.0
0.1 17.99999999999696 0.0
0.1 18.09999999999711 0.0
0.1 18.19999999999726 0.0
0.1 18.29999999999742 0.0
0.1 18.39999999999757 0.0
0.1 18.49999999999772 0.0
0.1 18.59999999999787 0.0
0.1 18.69999999999802 0.0
0.1 18.79999999999818 0.0
0.1 18.89999999999833 0.0
0.1 18.99999999999848 0.0
0.1 19.09999999999863 0.0
0.1 19.19999999999878 0.0
0.1 19.29999999999894 0.0
0.1 19.39999999999909 0.0
0.1 19.49999999999924 0.0
0.1 19.59999999999939 0.0
0.1 19.69999999999955 0.0
0.1 19.7999999999997 0.0
0.1 19.89999999999985 0.0
0.0 19.9 0.0
0.0 19.8 0.0
0.0 19.7 0.0
0.0 19.6 0.0
0.0 19.5 0.0
0.0 19.4 0.0
0.0 19.3 0.0
0.0 19.2 0.0
0.0 19.1 0.0
0.0 19.0 0.0
0.0 18.9 0.0
0.0 18.8 0.0
0.0 18.7 0.0
0.0 18.6 0.0
0.0 18.5 0.0
0.0 18.4 0.0
0.0 18.3 0.0
0.0 18.2 0.0
0.0 18.1 0.0
0.0 18.0 0.0
0.0 17.9 0.0
0.0 17.8 0.0
0.0 17.7 0.0
0.0 17.6 0.0
0.0 17.5 0.0
0.0 17.4 0.0
0.0 17.3 0.0
0.0 17.2 0.0
0.0 17.09999999999999 0.0
0.0 17.0 0.0
0.0 16.9 0.0
0.0 16.8 0.0
0.0 16.7 0.0
0.0 16.59999999999999 0.0
0.0 16.49999999999999 0.0
0.0 16.4 0.0
0.0 16.29999999999999 0.0
0.0 16.2 0.0
0.0 16.09999999999999 0.0
0.0 15.99999999999999 0.0
0.0 15.89999999999999 0.0
0.0 15.79999999999999 0.0
0.0 15.69999999999999 0.0
0.0 15.59999999999999 0.0
0.0 15.49999999999999 0.0
0.0 15.39999999999999 0.0
0.0 15.29999999999999 0.0
0.0 15.19999999999999 0.0
0.0 15.09999999999999 0.0
0.0 14.99999999999999 0.0
0.0 14.89999999999999 0.0
0.0 14.79999999999999 0.0
0.0 14.69999999999999 0.0
0.0 14.59999999999999 0.0
0.0 14.49999999999999 0.0
0.0 14.39999999999999 0.0
0.0 14.29999999999999 0.0
0.0 14.19999999999999 0.0
0.0 14.09999999999999 0.0
0.0 13.99999999999999 0.0
0.0 13.89999999999999 0.0
0.0 13.79999999999999 0.0
0.0 13.69999999999999 0.0
0.0 13.59999999999999 0.0
0.0 13.49999999999999 0.0
0.0 13.39999999999999 0.0
0.0 13.29999999999999 0.0
0.0 13.19999999999999 0.0
0.0 13.09999999999999 0.0
0.0 12.99999999999999 0.0
0.0 12.89999999999999 0.0
0.0 12.79999999999999 0.0
0.0 12.69999999999999 0.0
0.0 12.59999999999999 0.0
0.0 12.49999999999999 0.0
0.0 12.39999999999999 0.0
0.0 12.29999999999999 0.0
0.0 12.19999999999999 0.0
0.0 12.09999999999999 0.0
0.0 11.99999999999999 0.0
0.0 11.89999999999999 0.0
0.0 11.79999999999999 0.0
0.0 11.69999999999999 0.0
0.0 11.59999999999999 0.0
0.0 11.49999999999999 0.0
0.0 11.39999999999999 0.0
0.0 11.29999999999999 0.0
0.0 11.19999999999999 0.0
0.0 11.09999999999999 0.0
0.0 10.99999999999999 0.0
0.0 10.89999999999999 0.0
0.0 10.79999999999999 0.0
0.0 10.69999999999999 0.0
0.0 10.59999999999999 0.0
0.0 10.49999999999999 0.0
0.0 10.39999999999999 0.0
0.0 10.29999999999999 0.0
0.0 10.19999999999999 0.0
0.0 10.09999999999999 0.0
0.0 9.999999999999993 0.0
0.0 9.899999999999993 0.0
0.0 9.799999999999994 0.0
0.0 9.699999999999992 0.0
0.0 9.599999999999993 0.0
0.0 9.499999999999993 0.0
0.0 9.399999999999993 0.0
0.0 9.299999999999995 0.0
0.0 9.199999999999996 0.0
0.0 9.099999999999994 0.0
0.0 8.999999999999995 0.0
0.0 8.899999999999995 0.0
0.0 8.799999999999994 0.0
0.0 8.699999999999994 0.0
0.0 8.599999999999994 0.0
0.0 8.499999999999995 0.0
0.0 8.399999999999995 0.0
0.0 8.299999999999994 0.0
0.0 8.199999999999994 0.0
0.0 8.099999999999994 0.0
0.0 7.999999999999993 0.0
0.0 7.899999999999995 0.0
0.0 7.799999999999995 0.0
0.0 7.699999999999996 0.0
0.0 7.599999999999996 0.0
0.0 7.499999999999996 0.0
0.0 7.399999999999995 0.0
0.0 7.299999999999995 0.0
0.0 7.199999999999996 0.0
0.0 7.099999999999994 0.0
0.0 6.999999999999995 0.0
0.0 6.899999999999995 0.0
0.0 6.799999999999995 0.0
0.0 6.699999999999996 0.0
0.0 6.599999999999994 0.0
0.0 6.499999999999995 0.0
0.0 6.399999999999997 0.0
0.0 6.299999999999997 0.0
0.0 6.199999999999996 0.0
0.0 6.099999999999996 0.0
0.0 5.999999999999996 0.0
0.0 5.899999999999997 0.0
0.0 5.799999999999997 0.0
0.0 5.699999999999996 0.0
0.0 5.599999999999996 0.0
0.0 5.499999999999996 0.0
0.0 5.399999999999995 0.0
0.0 5.299999999999995 0.0
0.0 5.199999999999996 0.0
0.0 5.099999999999996 0.0
0.0 4.999999999999998 0.0
0.0 4.899999999999999 0.0
0.0 4.799999999999997 0.0
0.0 4.699999999999998 0.0
0.0 4.599999999999998 0.0
0.0 4.499999999999996 0.0
0.0 4.399999999999997 0.0
0.0 4.299999999999997 0.0
0.0 4.199999999999998 0.0
0.0 4.099999999999998 0.0
0.0 3.999999999999996 0.0
0.0 3.899999999999999 0.0
0.0 3.799999999999997 0.0
0.0 3.699999999999996 0.0
0.0 3.599999999999998 0.0
0.0 3.5 0.0
0.0 3.399999999999999 0.0
0.0 3.299999999999997 0.0
0.0 3.199999999999999 0.0
0.0 3.099999999999998 0.0
0.0 3.0 0.0
0.0 2.899999999999999 0.0
0.0 2.799999999999997 0.0
0.0 2.699999999999999 0.0
0.0 2.599999999999998 0.0
0.0 2.499999999999996 0.0
0.0 2.399999999999999 0.0
0.0 2.299999999999997 0.0
0.0 2.199999999999999 0.0
0.0 2.100000000000001 0.0
0.0 2.0 0.0
0.0 1.899999999999999 0.0
0.0 1.800000000000001 0.0
0.0 1.699999999999999 0.0
0.0 1.599999999999998 0.0
0.0 1.5 0.0
0.0 1.399999999999999 0.0
0.0 1.299999999999997 0.0
0.0 1.199999999999999 0.0
0.0 1.099999999999998 0.0
0.0 1.0 0.0
0.0 0.8999999999999986 0.0
0.0 0.8000000000000007 0.0
0.0 0.6999999999999993 0.0
0.0 0.6000000000000014 0.0
0.0 0.5 0.0
0.0 0.3999999999999986 0.0
0.0 0.3000000000000007 0.0
0.0 0.1999999999999993 0.0
[...]
POINT_DATA 804
VECTORS displacement double
0.0 0.0 0.0
0.0 0.0 0.0
0.0 0.0017860221439689355 0.0
0.0 0.001786022143968917 0.0
0.0 0.0 0.0
0.0 0.0 0.0
0.0 0.0017860221439689199 0.0
0.0 0.0017860221439689422 0.0
0.0 -1.6834476915334647e-11 0.0
0.0 6.789672909054568e-12 0.0
0.0 -3.8961589211335535e-11 0.0
0.0 -6.1569801575243365e-12 0.0
0.0 -3.8882566096301964e-11 0.0
0.0 -3.734214979647576e-11 0.0
0.0 -2.9800265546918994e-11 0.0
0.0 -6.575302219095186e-11 0.0
0.0 -3.432004602332754e-11 0.0
0.0 -7.391228830570938e-11 0.0
0.0 -5.957375627430782e-11 0.0
0.0 -6.714425564302576e-11 0.0
0.0 -8.948015966076823e-11 0.0
0.0 -6.722579045180521e-11 0.0
0.0 -1.0347679408565622e-10 0.0
0.0 -8.690378210808667e-11 0.0
0.0 -1.0077503184097835e-10 0.0
0.0 -1.1477016974031042e-10 0.0
0.0 -1.0109205810799977e-10 0.0
0.0 -1.296526721854485e-10 0.0
0.0 -1.19482514853993e-10 0.0
0.0 -1.282618348479681e-10 0.0
0.0 -1.458938755658292e-10 0.0
0.0 -1.306589114718333e-10 0.0
0.0 -1.5760831638942818e-10 0.0
0.0 -1.5331036958383998e-10 0.0
0.0 -1.5159396149337575e-10 0.0
0.0 -1.8330422137827885e-10 0.0
0.0 -1.5308513138199565e-10 0.0
0.0 -1.9206484547814033e-10 0.0
0.0 -1.826267644374831e-10 0.0
0.0 -1.7656941490340678e-10 0.0
0.0 -2.2215582211069524e-10 0.0
0.0 -1.7142712293453155e-10 0.0
0.0 -2.323407486409958e-10 0.0
0.0 -2.0546602389968946e-10 0.0
0.0 -2.0771324768726104e-10 0.0
0.0 -2.558512709908787e-10 0.0
0.0 -1.9345170431535094e-10 0.0
0.0 -2.707716023467249e-10 0.0
0.0 -2.2790133620097742e-10 0.0
0.0 -2.4197136338308713e-10 0.0
0.0 -2.8342150339492243e-10 0.0
0.0 -2.2438052709809913e-10 0.0
0.0 -2.986278894292478e-10 0.0
0.0 -2.605208256139833e-10 0.0
0.0 -2.690777496725442e-10 0.0
0.0 -3.1268941940491736e-10 0.0
0.0 -2.602905616017555e-10 0.0
0.0 -3.1552210282534773e-10 0.0
0.0 -3.07401503720222e-10 0.0
0.0 -2.825075301891233e-10 0.0
0.0 -3.513783943954444e-10 0.0
0.0 -2.930203200367093e-10 0.0
0.0 -3.2987378653473155e-10 0.0
0.0 -3.5986241462472836e-10 0.0
0.0 -2.907140560880336e-10 0.0
0.0 -3.9276088445830316e-10 0.0
0.0 -3.25156071893753e-10 0.0
0.0 -3.4569393119947016e-10 0.0
0.0 -4.061778185192376e-10 0.0
0.0 -3.1173109567163766e-10 0.0
0.0 -4.1662559738421707e-10 0.0
0.0 -3.73441487807982e-10 0.0
0.0 -3.545598845206673e-10 0.0
0.0 -4.4473865020317194e-10 0.0
0.0 -3.547153088351428e-10 0.0
0.0 -4.1182463711750265e-10 0.0
0.0 -4.454322674405455e-10 0.0
0.0 -3.5464925036473193e-10 0.0
0.0 -4.747224538959803e-10 0.0
0.0 -4.1621428031272033e-10 0.0
0.0 -3.924636538236484e-10 0.0
0.0 -5.156518033914889e-10 0.0
0.0 -3.7527302180246455e-10 0.0
0.0 -4.764359906762014e-10 0.0
0.0 -4.93914780704797e-10 0.0
0.0 -3.8606937169622667e-10 0.0
0.0 -5.414438393270955e-10 0.0
0.0 -4.544705265730839e-10 0.0
0.0 -4.351254443417034e-10 0.0
0.0 -5.739051982871538e-10 0.0
0.0 -4.2164573238715034e-10 0.0
0.0 -5.049728121820338e-10 0.0
0.0 -5.764494557269731e-10 0.0
0.0 -4.015062987062901e-10 0.0
0.0 -5.964290594838728e-10 0.0
0.0 -5.272522595624191e-10 0.0
0.0 -4.3944222554002747e-10 0.0
0.0 -6.523122548979501e-10 0.0
0.0 -4.756207012641015e-10 0.0
0.0 -5.100613636443273e-10 0.0
0.0 -6.70804046378561e-10 0.0
0.0 -4.4031590499823944e-10 0.0
0.0 -5.93661022699019e-10 0.0
0.0 -6.61844749475834e-10 0.0
0.0 -4.198582993846787e-10 0.0
0.0 -6.945402430444543e-10 0.0
0.0 -6.060945574513945e-10 0.0
0.0 -4.523140811710023e-10 0.0
0.0 -7.639806469439786e-10 0.0
0.0 -5.481714635585793e-10 0.0
0.0 -5.091336569257675e-10 0.0
0.0 -8.122508183390185e-10 0.0
0.0 -4.887915403544987e-10 0.0
0.0 -5.887111056268029e-10 0.0
0.0 -8.367691032265158e-10 0.0
0.0 -4.315782444325727e-10 0.0
0.0 -6.945124003168403e-10 0.0
0.0 -8.204953783919741e-10 0.0
0.0 -4.071272303281837e-10 0.0
0.0 -7.887588384224227e-10 0.0
0.0 -8.000183522554735e-10 0.0
0.0 -3.8546781998950527e-10 0.0
0.0 -8.945177265253445e-10 0.0
0.0 -7.557042262613785e-10 0.0
0.0 -3.8662354059408164e-10 0.0
0.0 -9.902923477519597e-10 0.0
0.0 -7.07703624808687e-10 0.0
0.0 -3.9722424957233874e-10 0.0
0.0 -1.0778495370667396e-09 0.0
0.0 -6.665577823425231e-10 0.0
0.0 -3.9906439176920753e-10 0.0
0.0 -1.1759418365246984e-09 0.0
0.0 -6.168444840085246e-10 0.0
0.0 -4.0742197441167997e-10 0.0
0.0 -1.261803728655156e-09 0.0
0.0 -5.927909921054517e-10 0.0
0.0 -3.823588627809727e-10 0.0
0.0 -1.3691167084972438e-09 0.0
0.0 -5.736090044068598e-10 0.0
0.0 -3.383335906529609e-10 0.0
0.0 -1.4763726756388667e-09 0.0
0.0 -5.916969799855943e-10 0.0
0.0 -2.458078629317103e-10 0.0
0.0 -1.591981462130575e-09 0.0
0.0 -6.596696752165458e-10 0.0
0.0 -9.430691412801465e-11 0.0
0.0 -1.7036250235995424e-09 0.0
0.0 -8.008310661091314e-10 0.0
0.0 1.1258073307749943e-10 0.0
0.0 -1.7628509590237247e-09 0.0
0.0 -1.0732591539673204e-09 0.0
0.0 3.8626177046544775e-10 0.0
0.0 -1.7314177273690427e-09 0.0
0.0 -1.491746807768242e-09 0.0
0.0 6.506010570733606e-10 0.0
0.0 -1.4838495263832948e-09 0.0
0.0 -2.1022993009807345e-09 0.0
0.0 8.178449014200598e-10 0.0
0.0 -9.279262857408957e-10 0.0
0.0 -2.8204511528177185e-09 0.0
0.0 6.510813235269877e-10 0.0
0.0 4.649783568795113e-11 0.0
0.0 -3.447242086033258e-09 0.0
0.0 9.802020442325636e-12 0.0
0.0 2.1701383987768737e-09 0.0
0.0 3.4745712487200483e-10 0.0
0.0 1.4231914092055172e-08 0.0
0.0 6.02300740882325e-08 0.0
0.0 1.8514663659687528e-07 0.0
0.0 5.546210130514923e-07 0.0
0.0 1.5368160497321456e-06 0.0
0.0 3.9060130546301405e-06 0.0
0.0 9.252126263846997e-06 0.0
0.0 2.0485643257390883e-05 0.0
0.0 4.238752245372004e-05 0.0
0.0 8.208819601383718e-05 0.0
0.0 0.00014895067388024887 0.0
0.0 0.00025324816522834394 0.0
0.0 0.0004034140509801065 0.0
0.0 0.000602071381226988 0.0
0.0 0.0008418445555948244 0.0
0.0 0.0011031558349234643 0.0
0.0 0.001356424380272651 0.0
0.0 0.0015694217607102412 0.0
0.0 0.0017178612668811576 0.0
0.0 0.0017947926861138308 0.0
0.0 0.0018133997816867293 0.0
0.0 0.0018003387248877029 0.0
0.0 0.0017826086232799567 0.0
0.0 0.0017757193629595758 0.0
0.0 0.0017801822369398828 0.0
0.0 0.0017874786154573913 0.0
0.0 0.0017900568181042176 0.0
0.0 0.0017873910592401555 0.0
0.0 0.00178411880389669 0.0
0.0 0.0017838347184908425 0.0
0.0 0.0017857378076814264 0.0
0.0 0.0017869285782411216 0.0
0.0 0.0017863137165558998 0.0
0.0 0.0017852452642175799 0.0
0.0 0.0017851385301018267 0.0
0.0 0.0017857971519777017 0.0
0.0 0.0017861805796453032 0.0
0.0 0.0017859043187691956 0.0
0.0 0.0017854872458156453 0.0
0.0 0.0017854820023995215 0.0
0.0 0.0017858207266342092 0.0
0.0 0.0017858207266341936 0.0
0.0 0.001785482002399522 0.0
0.0 0.0017854872458156425 0.0
0.0 0.0017859043187691966 0.0
0.0 0.0017861805796453034 0.0
0.0 0.0017857971519776982 0.0
0.0 0.0017851385301018315 0.0
0.0 0.001785245264217572 0.0
0.0 0.0017863137165558774 0.0
0.0 0.0017869285782411216 0.0
0.0 0.0017857378076814548 0.0
0.0 0.0017838347184908627 0.0
0.0 0.0017841188038966373 0.0
0.0 0.001787391059240078 0.0
0.0 0.00179005681810422 0.0
0.0 0.0017874786154575256 0.0
0.0 0.0017801822369400927 0.0
0.0 0.0017757193629595756 0.0
0.0 0.0017826086232795718 0.0
0.0 0.0018003387248871155 0.0
0.0 0.001813399781686668 0.0
0.0 0.0017947926861152993 0.0
0.0 0.0017178612668850635 0.0
0.0 0.0015694217607169255 0.0
0.0 0.0013564243802816958 0.0
0.0 0.0011031558349338273 0.0
0.0 0.0008418445556053092 0.0
0.0 0.0006020713812364303 0.0
0.0 0.0004034140509878096 0.0
0.0 0.0002532481652341095 0.0
0.0 0.00014895067388421648 0.0
0.0 8.208819601635356e-05 0.0
0.0 4.2387522455204566e-05 0.0
0.0 2.048564325819751e-05 0.0
0.0 9.252126264256233e-06 0.0
0.0 3.906013054823381e-06 0.0
0.0 1.5368160498164086e-06 0.0
0.0 5.546210130846575e-07 0.0
0.0 1.851466366072049e-07 0.0
0.0 6.023007409113766e-08 0.0
0.0 1.4231914093475979e-08 0.0
0.0 3.474571236585707e-10 0.0
0.0 2.1701383980041137e-09 0.0
0.0 9.802020242491611e-12 0.0
0.0 -3.4472420858869873e-09 0.0
0.0 4.649783504564834e-11 0.0
0.0 6.510813231118023e-10 0.0
0.0 -2.8204511520801645e-09 0.0
0.0 -9.279262850198113e-10 0.0
0.0 8.178449016690475e-10 0.0
0.0 -2.102299301334391e-09 0.0
0.0 -1.4838495264522492e-09 0.0
0.0 6.506010579602783e-10 0.0
0.0 -1.4917468080555827e-09 0.0
0.0 -1.7314177270601464e-09 0.0
0.0 3.8626177204068517e-10 0.0
0.0 -1.073259153826175e-09 0.0
0.0 -1.7628509602265541e-09 0.0
0.0 1.1258073267689438e-10 0.0
0.0 -8.008310655278327e-10 0.0
0.0 -1.7036250239221877e-09 0.0
0.0 -9.430691516740934e-11 0.0
0.0 -6.59669675446298e-10 0.0
0.0 -1.5919814608298415e-09 0.0
0.0 -2.4580786232095613e-10 0.0
0.0 -5.916969802436297e-10 0.0
0.0 -1.4763726758640153e-09 0.0
0.0 -3.38333589548286e-10 0.0
0.0 -5.736090027615513e-10 0.0
0.0 -1.36911670798687e-09 0.0
0.0 -3.823588628490782e-10 0.0
0.0 -5.927909920779307e-10 0.0
0.0 -1.2618037282687987e-09 0.0
0.0 -4.074219737765601e-10 0.0
0.0 -6.168444840231735e-10 0.0
0.0 -1.1759418359144481e-09 0.0
0.0 -3.990643912731453e-10 0.0
0.0 -6.665577828350691e-10 0.0
0.0 -1.0778495377571064e-09 0.0
0.0 -3.9722424939752477e-10 0.0
0.0 -7.077036249096439e-10 0.0
0.0 -9.90292347819127e-10 0.0
0.0 -3.8662354061000223e-10 0.0
0.0 -7.557042263466701e-10 0.0
0.0 -8.945177266988072e-10 0.0
0.0 -3.8546782036037454e-10 0.0
0.0 -8.00018352311144e-10 0.0
0.0 -7.887588388910695e-10 0.0
0.0 -4.0712723026462975e-10 0.0
0.0 -8.204953780312711e-10 0.0
0.0 -6.945124003812902e-10 0.0
0.0 -4.3157824424326996e-10 0.0
0.0 -8.367691026267334e-10 0.0
0.0 -5.887111054797617e-10 0.0
0.0 -4.887915404468257e-10 0.0
0.0 -8.122508184389852e-10 0.0
0.0 -5.091336566245747e-10 0.0
0.0 -5.481714636953893e-10 0.0
0.0 -7.639806474826902e-10 0.0
0.0 -4.52314081535845e-10 0.0
0.0 -6.06094557539166e-10 0.0
0.0 -6.945402431606918e-10 0.0
0.0 -4.198582997655667e-10 0.0
0.0 -6.618447497688204e-10 0.0
0.0 -5.936610226572138e-10 0.0
0.0 -4.4031590457396946e-10 0.0
0.0 -6.708040462407408e-10 0.0
0.0 -5.100613638929561e-10 0.0
0.0 -4.756207014828874e-10 0.0
0.0 -6.523122547860631e-10 0.0
0.0 -4.3944222531766157e-10 0.0
0.0 -5.272522595370006e-10 0.0
0.0 -5.964290597319373e-10 0.0
0.0 -4.015062992182966e-10 0.0
0.0 -5.764494562431444e-10 0.0
0.0 -5.049728123212733e-10 0.0
0.0 -4.216457319508618e-10 0.0
0.0 -5.739051977941374e-10 0.0
0.0 -4.351254442439205e-10 0.0
0.0 -4.5447052639396533e-10 0.0
0.0 -5.414438391328235e-10 0.0
0.0 -3.860693719079947e-10 0.0
0.0 -4.939147809988898e-10 0.0
0.0 -4.764359906225786e-10 0.0
0.0 -3.7527302190627903e-10 0.0
0.0 -5.156518033858765e-10 0.0
0.0 -3.9246365371380555e-10 0.0
0.0 -4.1621428040926585e-10 0.0
0.0 -4.747224537183965e-10 0.0
0.0 -3.546492501584493e-10 0.0
0.0 -4.454322676659282e-10 0.0
0.0 -4.118246374782642e-10 0.0
0.0 -3.5471530893847704e-10 0.0
0.0 -4.4473865040854574e-10 0.0
0.0 -3.545598849729962e-10 0.0
0.0 -3.7344148798143867e-10 0.0
0.0 -4.1662559711469867e-10 0.0
0.0 -3.117310954852424e-10 0.0
0.0 -4.0617781862396044e-10 0.0
0.0 -3.4569393130872784e-10 0.0
0.0 -3.2515607187154386e-10 0.0
0.0 -3.927608844916736e-10 0.0
0.0 -2.90714056180099e-10 0.0
0.0 -3.598624146358556e-10 0.0
0.0 -3.298737865159482e-10 0.0
0.0 -2.930203199327605e-10 0.0
0.0 -3.5137839430373997e-10 0.0
0.0 -2.825075302109108e-10 0.0
0.0 -3.0740150375874226e-10 0.0
0.0 -3.155221027631951e-10 0.0
0.0 -2.602905615671923e-10 0.0
0.0 -3.126894195730842e-10 0.0
0.0 -2.6907774986625386e-10 0.0
0.0 -2.605208256709867e-10 0.0
0.0 -2.986278894378018e-10 0.0
0.0 -2.243805271305523e-10 0.0
0.0 -2.8342150348206673e-10 0.0
0.0 -2.41971363637896e-10 0.0
0.0 -2.2790133646061972e-10 0.0
0.0 -2.7077160235407654e-10 0.0
0.0 -1.934517042561165e-10 0.0
0.0 -2.5585127102180843e-10 0.0
0.0 -2.0771324769092067e-10 0.0
0.0 -2.0546602396093815e-10 0.0
0.0 -2.3234074867234402e-10 0.0
0.0 -1.7142712291088537e-10 0.0
0.0 -2.2215582221562649e-10 0.0
0.0 -1.7656941499458563e-10 0.0
0.0 -1.8262676441675152e-10 0.0
0.0 -1.9206484550919277e-10 0.0
0.0 -1.5308513145279626e-10 0.0
0.0 -1.833042214233785e-10 0.0
0.0 -1.515939614247475e-10 0.0
0.0 -1.53310369455486e-10 0.0
0.0 -1.5760831638890447e-10 0.0
0.0 -1.3065891154985545e-10 0.0
0.0 -1.458938756019314e-10 0.0
0.0 -1.2826183485106818e-10 0.0
0.0 -1.1948251485720404e-10 0.0
0.0 -1.2965267219434084e-10 0.0
0.0 -1.0109205814107579e-10 0.0
0.0 -1.1477016980482661e-10 0.0
0.0 -1.007750318626392e-10 0.0
0.0 -8.690378208772966e-11 0.0
0.0 -1.0347679401436188e-10 0.0
0.0 -6.722579044023985e-11 0.0
0.0 -8.948015979761621e-11 0.0
0.0 -6.714425575582878e-11 0.0
0.0 -5.957375627600464e-11 0.0
0.0 -7.391228827344622e-11 0.0
0.0 -3.432004599689185e-11 0.0
0.0 -6.57530221877607e-11 0.0
0.0 -2.980026555700237e-11 0.0
0.0 -3.734214978923044e-11 0.0
0.0 -3.888256610355974e-11 0.0
0.0 -6.156980193401066e-12 0.0
0.0 -3.8961589271025114e-11 0.0
0.0 6.7896728161631e-12 0.0
0.0 -1.6834477060001948e-11 0.0
0.0 -1.6834477028261392e-11 0.0
0.0 6.789672838512744e-12 0.0
0.0 -3.8961589167946906e-11 0.0
0.0 -6.1569800528757705e-12 0.0
0.0 -3.8882566052214316e-11 0.0
0.0 -3.734214980691594e-11 0.0
0.0 -2.980026554084714e-11 0.0
0.0 -6.575302218897652e-11 0.0
0.0 -3.432004610687017e-11 0.0
0.0 -7.391228842589258e-11 0.0
0.0 -5.957375635786722e-11 0.0
0.0 -6.714425567240417e-11 0.0
0.0 -8.948015963239959e-11 0.0
0.0 -6.72257903640418e-11 0.0
0.0 -1.0347679402543823e-10 0.0
0.0 -8.690378210204924e-11 0.0
0.0 -1.0077503175815881e-10 0.0
0.0 -1.147701696362143e-10 0.0
0.0 -1.0109205810513824e-10 0.0
0.0 -1.2965267223711445e-10 0.0
0.0 -1.1948251491054664e-10 0.0
0.0 -1.282618348958425e-10 0.0
0.0 -1.4589387558918069e-10 0.0
0.0 -1.3065891149256875e-10 0.0
0.0 -1.5760831637624847e-10 0.0
0.0 -1.533103695201739e-10 0.0
0.0 -1.5159396143947526e-10 0.0
0.0 -1.8330422138683358e-10 0.0
0.0 -1.5308513140383697e-10 0.0
0.0 -1.920648454853573e-10 0.0
0.0 -1.826267643871815e-10 0.0
0.0 -1.765694148904166e-10 0.0
0.0 -2.2215582220916664e-10 0.0
0.0 -1.7142712304313206e-10 0.0
0.0 -2.3234074869682624e-10 0.0
0.0 -2.0546602391355088e-10 0.0
0.0 -2.0771324770815738e-10 0.0
0.0 -2.55851271129414e-10 0.0
0.0 -1.9345170454142736e-10 0.0
0.0 -2.707716024393633e-10 0.0
0.0 -2.2790133618552863e-10 0.0
0.0 -2.419713634208691e-10 0.0
0.0 -2.8342150339569326e-10 0.0
0.0 -2.243805271315397e-10 0.0
0.0 -2.986278895401339e-10 0.0
0.0 -2.6052082567243254e-10 0.0
0.0 -2.6907774973634256e-10 0.0
0.0 -3.126894194697167e-10 0.0
0.0 -2.6029056152590985e-10 0.0
0.0 -3.1552210279050435e-10 0.0
0.0 -3.0740150384447266e-10 0.0
0.0 -2.8250753035377305e-10 0.0
0.0 -3.5137839441182936e-10 0.0
0.0 -2.9302031990518304e-10 0.0
0.0 -3.298737864253159e-10 0.0
0.0 -3.598624146171429e-10 0.0
0.0 -2.907140561940409e-10 0.0
0.0 -3.9276088457626707e-10 0.0
0.0 -3.251560718702684e-10 0.0
0.0 -3.456939310021973e-10 0.0
0.0 -4.0617781831772246e-10 0.0
0.0 -3.117310955361843e-10 0.0
0.0 -4.1662559724232106e-10 0.0
0.0 -3.7344148785109724e-10 0.0
0.0 -3.545598847066203e-10 0.0
0.0 -4.4473865022834465e-10 0.0
0.0 -3.547153087449841e-10 0.0
0.0 -4.1182463699239825e-10 0.0
0.0 -4.4543226724213947e-10 0.0
0.0 -3.546492501828771e-10 0.0
0.0 -4.747224539352401e-10 0.0
0.0 -4.162142804547879e-10 0.0
0.0 -3.9246365383849036e-10 0.0
0.0 -5.156518036790427e-10 0.0
0.0 -3.7527302203753475e-10 0.0
0.0 -4.764359905868112e-10 0.0
0.0 -4.939147806642081e-10 0.0
0.0 -3.8606937170675203e-10 0.0
0.0 -5.414438393359741e-10 0.0
0.0 -4.5447052645761155e-10 0.0
0.0 -4.3512544439772375e-10 0.0
0.0 -5.739051982099748e-10 0.0
0.0 -4.216457323053008e-10 0.0
0.0 -5.049728124283669e-10 0.0
0.0 -5.764494560460002e-10 0.0
0.0 -4.015062989921728e-10 0.0
0.0 -5.964290593417361e-10 0.0
0.0 -5.272522592247386e-10 0.0
0.0 -4.3944222549483135e-10 0.0
0.0 -6.523122549860047e-10 0.0
0.0 -4.756207012071122e-10 0.0
0.0 -5.100613636498022e-10 0.0
0.0 -6.708040464079331e-10 0.0
0.0 -4.403159047558949e-10 0.0
0.0 -5.936610225003983e-10 0.0
0.0 -6.618447493203516e-10 0.0
0.0 -4.198582991625844e-10 0.0
0.0 -6.945402426479815e-10 0.0
0.0 -6.060945572689524e-10 0.0
0.0 -4.523140814289627e-10 0.0
0.0 -7.639806471662607e-10 0.0
0.0 -5.481714632982519e-10 0.0
0.0 -5.091336566084187e-10 0.0
0.0 -8.122508183556824e-10 0.0
0.0 -4.887915401281086e-10 0.0
0.0 -5.887111057729451e-10 0.0
0.0 -8.36769103547968e-10 0.0
0.0 -4.315782443971963e-10 0.0
0.0 -6.945123997049042e-10 0.0
0.0 -8.204953775074325e-10 0.0
0.0 -4.0712722997131884e-10 0.0
0.0 -7.887588384511324e-10 0.0
0.0 -8.000183519605149e-10 0.0
0.0 -3.8546782045904184e-10 0.0
0.0 -8.945177273541341e-10 0.0
0.0 -7.557042268866305e-10 0.0
0.0 -3.86623540847608e-10 0.0
0.0 -9.902923477104404e-10 0.0
0.0 -7.077036254428542e-10 0.0
0.0 -3.9722424936947264e-10 0.0
0.0 -1.077849536662796e-09 0.0
0.0 -6.66557782452645e-10 0.0
0.0 -3.990643916914554e-10 0.0
0.0 -1.1759418368730512e-09 0.0
0.0 -6.168444853662676e-10 0.0
0.0 -4.0742197416853137e-10 0.0
0.0 -1.2618037278754695e-09 0.0
0.0 -5.92790991891666e-10 0.0
0.0 -3.823588632375604e-10 0.0
0.0 -1.3691167090309868e-09 0.0
0.0 -5.736090038324081e-10 0.0
0.0 -3.383335899162114e-10 0.0
0.0 -1.4763726753106377e-09 0.0
0.0 -5.916969795017235e-10 0.0
0.0 -2.458078616458467e-10 0.0
0.0 -1.5919814606986316e-09 0.0
0.0 -6.596696740576271e-10 0.0
0.0 -9.430691300800985e-11 0.0
0.0 -1.7036250225669404e-09 0.0
0.0 -8.008310665481688e-10 0.0
0.0 1.1258073184351261e-10 0.0
0.0 -1.7628509595509517e-09 0.0
0.0 -1.0732591533483947e-09 0.0
0.0 3.8626177177949317e-10 0.0
0.0 -1.7314177269611448e-09 0.0
0.0 -1.491746809245406e-09 0.0
0.0 6.506010564487123e-10 0.0
0.0 -1.4838495262597854e-09 0.0
0.0 -2.1022993004226846e-09 0.0
0.0 8.178449023893286e-10 0.0
0.0 -9.279262861843241e-10 0.0
0.0 -2.8204511548003364e-09 0.0
0.0 6.510813221923328e-10 0.0
0.0 4.6497835158059777e-11 0.0
0.0 -3.4472420864928884e-09 0.0
0.0 9.802019601765978e-12 0.0
0.0 2.1701383974540556e-09 0.0
0.0 3.474571236317624e-10 0.0
0.0 1.4231914092712514e-08 0.0
0.0 6.023007408872e-08 0.0
0.0 1.851466365966389e-07 0.0
0.0 5.546210130495425e-07 0.0
0.0 1.536816049731346e-06 0.0
0.0 3.90601305463065e-06 0.0
0.0 9.252126263847968e-06 0.0
0.0 2.048564325739102e-05 0.0
0.0 4.23875224537197e-05 0.0
0.0 8.208819601383749e-05 0.0
0.0 0.00014895067388024768 0.0
0.0 0.0002532481652283455 0.0
0.0 0.00040341405098010707 0.0
0.0 0.0006020713812269884 0.0
0.0 0.0008418445555948294 0.0
0.0 0.001103155834923459 0.0
0.0 0.0013564243802726516 0.0
0.0 0.001569421760710239 0.0
0.0 0.0017178612668811584 0.0
0.0 0.0017947926861138332 0.0
0.0 0.0018133997816867356 0.0
0.0 0.0018003387248877016 0.0
0.0 0.0017826086232799623 0.0
0.0 0.001775719362959581 0.0
0.0 0.0017801822369398945 0.0
0.0 0.0017874786154573792 0.0
0.0 0.0017900568181042273 0.0
0.0 0.0017873910592401648 0.0
0.0 0.001784118803896684 0.0
0.0 0.0017838347184908367 0.0
0.0 0.0017857378076814227 0.0
0.0 0.0017869285782411344 0.0
0.0 0.0017863137165559022 0.0
0.0 0.0017852452642175775 0.0
0.0 0.0017851385301018432 0.0
0.0 0.0017857971519777021 0.0
0.0 0.0017861805796453056 0.0
0.0 0.001785904318769204 0.0
0.0 0.0017854872458156522 0.0
0.0 0.0017854820023995323 0.0
0.0 0.001785820726634206 0.0
0.0 0.0017858207266342103 0.0
0.0 0.001785482002399526 0.0
0.0 0.001785487245815643 0.0
0.0 0.0017859043187692077 0.0
0.0 0.0017861805796453069 0.0
0.0 0.001785797151977706 0.0
0.0 0.0017851385301018436 0.0
0.0 0.0017852452642175677 0.0
0.0 0.0017863137165558813 0.0
0.0 0.001786928578241127 0.0
0.0 0.0017857378076814561 0.0
0.0 0.0017838347184908636 0.0
0.0 0.0017841188038966475 0.0
0.0 0.0017873910592400774 0.0
0.0 0.0017900568181042097 0.0
0.0 0.0017874786154575277 0.0
0.0 0.0017801822369400745 0.0
0.0 0.0017757193629595776 0.0
0.0 0.0017826086232795599 0.0
0.0 0.0018003387248871218 0.0
0.0 0.0018133997816866623 0.0
0.0 0.0017947926861153042 0.0
0.0 0.0017178612668850624 0.0
0.0 0.0015694217607169305 0.0
0.0 0.0013564243802816965 0.0
0.0 0.0011031558349338332 0.0
0.0 0.0008418445556053044 0.0
0.0 0.0006020713812364319 0.0
0.0 0.0004034140509878067 0.0
0.0 0.0002532481652341125 0.0
0.0 0.00014895067388421445 0.0
0.0 8.208819601635037e-05 0.0
0.0 4.2387522455204255e-05 0.0
0.0 2.048564325820072e-05 0.0
0.0 9.25212626425568e-06 0.0
0.0 3.906013054820836e-06 0.0
0.0 1.5368160498149149e-06 0.0
0.0 5.546210130841999e-07 0.0
0.0 1.8514663660723976e-07 0.0
0.0 6.023007409160667e-08 0.0
0.0 1.4231914094107157e-08 0.0
0.0 3.4745712573581285e-10 0.0