# vtk DataFile Version 2.0
data_132
ASCII
DATASET UNSTRUCTURED_GRID
POINTS 804 float
0.0 0.0 0.0
0.1 0.0 0.0
0.1 20.0 0.0
0.0 20.0 0.0
0.0 0.0 -0.1
0.1 0.0 -0.1
0.1 20.0 -0.1
0.0 20.0 -0.1
0.1 0.09999999999992462 0.0
0.1 0.1999999999998517 0.0
0.1 0.2999999999997818 0.0
0.1 0.399999999999712 0.0
0.1 0.4999999999996377 0.0
0.1 0.5999999999995541 0.0
0.1 0.6999999999994495 0.0
0.1 0.7999999999993355 0.0
0.1 0.8999999999992101 0.0
0.1 0.999999999999102 0.0
0.1 1.099999999999006 0.0
0.1 1.199999999998936 0.0
0.1 1.299999999998867 0.0
0.1 1.399999999998797 0.0
0.1 1.499999999998727 0.0
0.1 1.599999999998657 0.0
0.1 1.699999999998587 0.0
0.1 1.799999999998517 0.0
0.1 1.899999999998447 0.0
0.1 1.999999999998378 0.0
0.1 2.099999999998308 0.0
0.1 2.199999999998238 0.0
0.1 2.299999999998168 0.0
0.1 2.399999999998067 0.0
0.1 2.499999999997942 0.0
0.1 2.599999999997706 0.0
0.1 2.699999999997444 0.0
0.1 2.799999999997153 0.0
0.1 2.899999999996861 0.0
0.1 2.999999999996569 0.0
0.1 3.099999999996277 0.0
0.1 3.199999999995984 0.0
0.1 3.299999999995693 0.0
0.1 3.399999999995401 0.0
0.1 3.499999999995108 0.0
0.1 3.599999999994816 0.0
0.1 3.699999999994525 0.0
0.1 3.799999999994232 0.0
0.1 3.89999999999394 0.0
0.1 3.999999999993648 0.0
0.1 4.099999999993356 0.0
0.1 4.199999999993064 0.0
0.1 4.299999999992772 0.0
0.1 4.399999999992479 0.0
0.1 4.499999999992188 0.0
0.1 4.599999999991895 0.0
0.1 4.699999999991603 0.0
0.1 4.799999999991311 0.0
0.1 4.899999999991019 0.0
0.1 4.999999999990727 0.0
0.1 5.099999999990436 0.0
0.1 5.199999999990144 0.0
0.1 5.299999999989851 0.0
0.1 5.399999999989559 0.0
0.1 5.499999999989267 0.0
0.1 5.599999999988975 0.0
0.1 5.699999999988683 0.0
0.1 5.799999999988391 0.0
0.1 5.899999999988099 0.0
0.1 5.999999999987806 0.0
0.1 6.099999999987515 0.0
0.1 6.199999999987222 0.0
0.1 6.299999999986929 0.0
0.1 6.399999999986638 0.0
0.1 6.499999999986345 0.0
0.1 6.599999999986054 0.0
0.1 6.699999999985762 0.0
0.1 6.79999999998547 0.0
0.1 6.899999999985177 0.0
0.1 6.999999999984885 0.0
0.1 7.099999999984593 0.0
0.1 7.199999999984302 0.0
0.1 7.299999999984009 0.0
0.1 7.399999999983717 0.0
0.1 7.499999999983426 0.0
0.1 7.599999999983132 0.0
0.1 7.699999999982841 0.0
0.1 7.799999999982549 0.0
0.1 7.899999999982256 0.0
0.1 7.999999999982034 0.0
0.1 8.099999999981964 0.0
0.1 8.199999999982062 0.0
0.1 8.299999999982214 0.0
0.1 8.399999999982366 0.0
0.1 8.499999999982517 0.0
0.1 8.59999999998267 0.0
0.1 8.699999999982822 0.0
0.1 8.799999999982973 0.0
0.1 8.899999999983125 0.0
0.1 8.999999999983277 0.0
0.1 9.09999999998343 0.0
0.1 9.19999999998358 0.0
0.1 9.299999999983733 0.0
0.1 9.399999999983885 0.0
0.1 9.499999999984038 0.0
0.1 9.599999999984188 0.0
0.1 9.69999999998434 0.0
0.1 9.799999999984493 0.0
0.1 9.899999999984646 0.0
0.1 9.999999999984798 0.0
0.1 10.09999999998495 0.0
0.1 10.1999999999851 0.0
0.1 10.29999999998525 0.0
0.1 10.39999999998541 0.0
0.1 10.49999999998556 0.0
0.1 10.59999999998571 0.0
0.1 10.69999999998586 0.0
0.1 10.79999999998601 0.0
0.1 10.89999999998616 0.0
0.1 10.99999999998632 0.0
0.1 11.09999999998647 0.0
0.1 11.19999999998662 0.0
0.1 11.29999999998677 0.0
0.1 11.39999999998693 0.0
0.1 11.49999999998708 0.0
0.1 11.59999999998723 0.0
0.1 11.69999999998738 0.0
0.1 11.79999999998754 0.0
0.1 11.89999999998769 0.0
0.1 11.99999999998784 0.0
0.1 12.09999999998799 0.0
0.1 12.19999999998814 0.0
0.1 12.2999999999883 0.0
0.1 12.39999999998845 0.0
0.1 12.4999999999886 0.0
0.1 12.59999999998875 0.0
0.1 12.6999999999889 0.0
0.1 12.79999999998905 0.0
0.1 12.89999999998921 0.0
0.1 12.99999999998936 0.0
0.1 13.09999999998951 0.0
0.1 13.19999999998966 0.0
0.1 13.29999999998982 0.0
0.1 13.39999999998997 0.0
0.1 13.49999999999012 0.0
0.1 13.59999999999027 0.0
0.1 13.69999999999042 0.0
0.1 13.79999999999057 0.0
0.1 13.89999999999073 0.0
0.1 13.99999999999088 0.0
0.1 14.09999999999103 0.0
0.1 14.19999999999118 0.0
0.1 14.29999999999134 0.0
0.1 14.39999999999149 0.0
0.1 14.49999999999164 0.0
0.1 14.59999999999179 0.0
0.1 14.69999999999194 0.0
0.1 14.7999999999921 0.0
0.1 14.89999999999225 0.0
0.1 14.9999999999924 0.0
0.1 15.09999999999255 0.0
0.1 15.1999999999927 0.0
0.1 15.29999999999285 0.0
0.1 15.39999999999301 0.0
0.1 15.49999999999316 0.0
0.1 15.59999999999331 0.0
0.1 15.69999999999346 0.0
0.1 15.79999999999362 0.0
0.1 15.89999999999377 0.0
0.1 15.99999999999392 0.0
0.1 16.09999999999407 0.0
0.1 16.19999999999422 0.0
0.1 16.29999999999437 0.0
0.1 16.39999999999453 0.0
0.1 16.49999999999468 0.0
0.1 16.59999999999483 0.0
0.1 16.69999999999498 0.0
0.1 16.79999999999514 0.0
0.1 16.89999999999528 0.0
0.1 16.99999999999544 0.0
0.1 17.09999999999559 0.0
0.1 17.19999999999574 0.0
0.1 17.29999999999589 0.0
0.1 17.39999999999605 0.0
0.1 17.4999999999962 0.0
0.1 17.59999999999635 0.0
0.1 17.6999999999965 0.0
0.1 17.79999999999665 0.0
0.1 17.89999999999681 0.0
0.1 17.99999999999696 0.0
0.1 18.09999999999711 0.0
0.1 18.19999999999726 0.0
0.1 18.29999999999742 0.0
0.1 18.39999999999757 0.0
0.1 18.49999999999772 0.0
0.1 18.59999999999787 0.0
0.1 18.69999999999802 0.0
0.1 18.79999999999818 0.0
0.1 18.89999999999833 0.0
0.1 18.99999999999848 0.0
0.1 19.09999999999863 0.0
0.1 19.19999999999878 0.0
0.1 19.29999999999894 0.0
0.1 19.39999999999909 0.0
0.1 19.49999999999924 0.0
0.1 19.59999999999939 0.0
0.1 19.69999999999955 0.0
0.1 19.7999999999997 0.0
0.1 19.89999999999985 0.0
0.0 19.9 0.0
0.0 19.8 0.0
0.0 19.7 0.0
0.0 19.6 0.0
0.0 19.5 0.0
0.0 19.4 0.0
0.0 19.3 0.0
0.0 19.2 0.0
0.0 19.1 0.0
0.0 19.0 0.0
0.0 18.9 0.0
0.0 18.8 0.0
0.0 18.7 0.0
0.0 18.6 0.0
0.0 18.5 0.0
0.0 18.4 0.0
0.0 18.3 0.0
0.0 18.2 0.0
0.0 18.1 0.0
0.0 18.0 0.0
0.0 17.9 0.0
0.0 17.8 0.0
0.0 17.7 0.0
0.0 17.6 0.0
0.0 17.5 0.0
0.0 17.4 0.0
0.0 17.3 0.0
0.0 17.2 0.0
0.0 17.09999999999999 0.0
0.0 17.0 0.0
0.0 16.9 0.0
0.0 16.8 0.0
0.0 16.7 0.0
0.0 16.59999999999999 0.0
0.0 16.49999999999999 0.0
0.0 16.4 0.0
0.0 16.29999999999999 0.0
0.0 16.2 0.0
0.0 16.09999999999999 0.0
0.0 15.99999999999999 0.0
0.0 15.89999999999999 0.0
0.0 15.79999999999999 0.0
0.0 15.69999999999999 0.0
0.0 15.59999999999999 0.0
0.0 15.49999999999999 0.0
0.0 15.39999999999999 0.0
0.0 15.29999999999999 0.0
0.0 15.19999999999999 0.0
0.0 15.09999999999999 0.0
0.0 14.99999999999999 0.0
0.0 14.89999999999999 0.0
0.0 14.79999999999999 0.0
0.0 14.69999999999999 0.0
0.0 14.59999999999999 0.0
0.0 14.49999999999999 0.0
0.0 14.39999999999999 0.0
0.0 14.29999999999999 0.0
0.0 14.19999999999999 0.0
0.0 14.09999999999999 0.0
0.0 13.99999999999999 0.0
0.0 13.89999999999999 0.0
0.0 13.79999999999999 0.0
0.0 13.69999999999999 0.0
0.0 13.59999999999999 0.0
0.0 13.49999999999999 0.0
0.0 13.39999999999999 0.0
0.0 13.29999999999999 0.0
0.0 13.19999999999999 0.0
0.0 13.09999999999999 0.0
0.0 12.99999999999999 0.0
0.0 12.89999999999999 0.0
0.0 12.79999999999999 0.0
0.0 12.69999999999999 0.0
0.0 12.59999999999999 0.0
0.0 12.49999999999999 0.0
0.0 12.39999999999999 0.0
0.0 12.29999999999999 0.0
0.0 12.19999999999999 0.0
0.0 12.09999999999999 0.0
0.0 11.99999999999999 0.0
0.0 11.89999999999999 0.0
0.0 11.79999999999999 0.0
0.0 11.69999999999999 0.0
0.0 11.59999999999999 0.0
0.0 11.49999999999999 0.0
0.0 11.39999999999999 0.0
0.0 11.29999999999999 0.0
0.0 11.19999999999999 0.0
0.0 11.09999999999999 0.0
0.0 10.99999999999999 0.0
0.0 10.89999999999999 0.0
0.0 10.79999999999999 0.0
0.0 10.69999999999999 0.0
0.0 10.59999999999999 0.0
0.0 10.49999999999999 0.0
0.0 10.39999999999999 0.0
0.0 10.29999999999999 0.0
0.0 10.19999999999999 0.0
0.0 10.09999999999999 0.0
0.0 9.999999999999993 0.0
0.0 9.899999999999993 0.0
0.0 9.799999999999994 0.0
0.0 9.699999999999992 0.0
0.0 9.599999999999993 0.0
0.0 9.499999999999993 0.0
0.0 9.399999999999993 0.0
0.0 9.299999999999995 0.0
0.0 9.199999999999996 0.0
0.0 9.099999999999994 0.0
0.0 8.999999999999995 0.0
0.0 8.899999999999995 0.0
0.0 8.799999999999994 0.0
0.0 8.699999999999994 0.0
0.0 8.599999999999994 0.0
0.0 8.499999999999995 0.0
0.0 8.399999999999995 0.0
0.0 8.299999999999994 0.0
0.0 8.199999999999994 0.0
0.0 8.099999999999994 0.0
0.0 7.999999999999993 0.0
0.0 7.899999999999995 0.0
0.0 7.799999999999995 0.0
0.0 7.699999999999996 0.0
0.0 7.599999999999996 0.0
0.0 7.499999999999996 0.0
0.0 7.399999999999995 0.0
0.0 7.299999999999995 0.0
0.0 7.199999999999996 0.0
0.0 7.099999999999994 0.0
0.0 6.999999999999995 0.0
0.0 6.899999999999995 0.0
0.0 6.799999999999995 0.0
0.0 6.699999999999996 0.0
0.0 6.599999999999994 0.0
0.0 6.499999999999995 0.0
0.0 6.399999999999997 0.0
0.0 6.299999999999997 0.0
0.0 6.199999999999996 0.0
0.0 6.099999999999996 0.0
0.0 5.999999999999996 0.0
0.0 5.899999999999997 0.0
0.0 5.799999999999997 0.0
0.0 5.699999999999996 0.0
0.0 5.599999999999996 0.0
0.0 5.499999999999996 0.0
0.0 5.399999999999995 0.0
0.0 5.299999999999995 0.0
0.0 5.199999999999996 0.0
0.0 5.099999999999996 0.0
0.0 4.999999999999998 0.0
0.0 4.899999999999999 0.0
0.0 4.799999999999997 0.0
0.0 4.699999999999998 0.0
0.0 4.599999999999998 0.0
0.0 4.499999999999996 0.0
0.0 4.399999999999997 0.0
0.0 4.299999999999997 0.0
0.0 4.199999999999998 0.0
0.0 4.099999999999998 0.0
0.0 3.999999999999996 0.0
0.0 3.899999999999999 0.0
0.0 3.799999999999997 0.0
0.0 3.699999999999996 0.0
0.0 3.599999999999998 0.0
0.0 3.5 0.0
0.0 3.399999999999999 0.0
0.0 3.299999999999997 0.0
0.0 3.199999999999999 0.0
0.0 3.099999999999998 0.0
0.0 3.0 0.0
0.0 2.899999999999999 0.0
0.0 2.799999999999997 0.0
0.0 2.699999999999999 0.0
0.0 2.599999999999998 0.0
0.0 2.499999999999996 0.0
0.0 2.399999999999999 0.0
0.0 2.299999999999997 0.0
0.0 2.199999999999999 0.0
0.0 2.100000000000001 0.0
0.0 2.0 0.0
0.0 1.899999999999999 0.0
0.0 1.800000000000001 0.0
0.0 1.699999999999999 0.0
0.0 1.599999999999998 0.0
0.0 1.5 0.0
0.0 1.399999999999999 0.0
0.0 1.299999999999997 0.0
0.0 1.199999999999999 0.0
0.0 1.099999999999998 0.0
0.0 1.0 0.0
0.0 0.8999999999999986 0.0
0.0 0.8000000000000007 0.0
0.0 0.6999999999999993 0.0
0.0 0.6000000000000014 0.0
0.0 0.5 0.0
0.0 0.3999999999999986 0.0
0.0 0.3000000000000007 0.0
0.0 0.1999999999999993 0.0
[...]
POINT_DATA 804
VECTORS displacement double
0.0 0.0 0.0
0.0 0.0 0.0
0.0 -0.0017878041472214775 0.0
0.0 -0.0017878041472214796 0.0
0.0 0.0 0.0
0.0 0.0 0.0
0.0 -0.0017878041472214905 0.0
0.0 -0.00178780414722147 0.0
0.0 -4.572471471759007e-92 0.0
0.0 3.9286163890216526e-91 0.0
0.0 -3.7796042530438683e-90 0.0
0.0 3.9523470144524474e-89 0.0
0.0 -4.2855598252715245e-88 0.0
0.0 4.671281570988813e-87 0.0
0.0 -5.029299594388578e-86 0.0
0.0 5.294471554996653e-85 0.0
0.0 -5.412600799257194e-84 0.0
0.0 5.341440991375e-83 0.0
0.0 -5.0545080394537864e-82 0.0
0.0 4.545821792644166e-81 0.0
0.0 -3.833852086361197e-80 0.0
0.0 2.963073904619028e-79 0.0
0.0 -2.0018356705323726e-78 0.0
0.0 1.0358250246726303e-77 0.0
0.0 -1.5729276843456953e-77 0.0
0.0 -5.487329309971235e-76 0.0
0.0 1.0189601324561761e-74 0.0
0.0 -1.2240631027662643e-73 0.0
0.0 1.1755154242177325e-72 0.0
0.0 -9.246493626419503e-72 0.0
0.0 5.531438127956384e-71 0.0
0.0 -1.5629070640262417e-70 0.0
0.0 -1.7743956361392263e-69 0.0
0.0 3.855188198252662e-68 0.0
0.0 -4.4397157124211566e-67 0.0
0.0 3.697233900879626e-66 0.0
0.0 -2.117882372804461e-65 0.0
0.0 3.386569323453251e-65 0.0
0.0 1.0617077523059198e-63 0.0
0.0 -1.7322019196166873e-62 0.0
0.0 1.6282933444157193e-61 0.0
0.0 -9.778191733711408e-61 0.0
0.0 1.543447604907899e-60 0.0
0.0 4.866823783471223e-59 0.0
0.0 -7.414295253601214e-58 0.0
0.0 6.099262822943597e-57 0.0
0.0 -2.546846784058631e-56 0.0
0.0 -1.0413069677419137e-55 0.0
0.0 3.0063444194388046e-54 0.0
0.0 -2.886426511617567e-53 0.0
0.0 1.3618370092307261e-52 0.0
0.0 3.618325848093428e-52 0.0
0.0 -1.311523466850675e-50 0.0
0.0 1.2115952658969724e-49 0.0
0.0 -4.547394777611233e-49 0.0
0.0 -3.0349091839041494e-48 0.0
0.0 6.063961682505526e-47 0.0
0.0 -4.197121647191247e-46 0.0
0.0 3.0951623468649633e-46 0.0
0.0 2.331629158593485e-44 0.0
0.0 -2.377135036884442e-43 0.0
0.0 7.325849516146949e-43 0.0
0.0 8.001547374348877e-42 0.0
0.0 -1.1305825086958534e-40 0.0
0.0 4.639367723753077e-40 0.0
0.0 2.9516582532453184e-39 0.0
0.0 -5.021151121687233e-38 0.0
0.0 2.0648733908438e-37 0.0
0.0 1.3862258028445465e-36 0.0
0.0 -2.1371649144350255e-35 0.0
0.0 6.480952009819246e-35 0.0
0.0 7.723561525095925e-34 0.0
0.0 -8.255914380595006e-33 0.0
0.0 5.9367482218920865e-33 0.0
0.0 4.092022116230128e-31 0.0
0.0 -2.4313196169543148e-30 0.0
0.0 -9.511455143059191e-30 0.0
0.0 1.6826196025148463e-28 0.0
0.0 -2.2798318513991475e-28 0.0
0.0 -7.523062893683659e-27 0.0
0.0 3.802130431799132e-26 0.0
0.0 2.4227158268170266e-25 0.0
0.0 -2.5128266433750443e-24 0.0
0.0 -5.01240911133652e-24 0.0
0.0 1.269269500002752e-22 0.0
0.0 -3.535901897821529e-24 0.0
0.0 -5.64844071600633e-21 0.0
0.0 6.270862721601304e-21 0.0
0.0 2.3765396069726043e-19 0.0
0.0 -3.399260127945585e-19 0.0
0.0 -9.792368978324672e-18 0.0
0.0 9.129063038091247e-18 0.0
0.0 3.9262537074692844e-16 0.0
0.0 1.508075965300861e-16 0.0
0.0 -1.4424955858380028e-14 0.0
0.0 -3.6012000624394844e-14 0.0
0.0 4.190348794454373e-13 0.0
0.0 2.4890126452247518e-12 0.0
0.0 -5.4269109272073424e-12 0.0
0.0 -1.0136609615104653e-10 0.0
0.0 -2.715598235509205e-10 0.0
0.0 1.7347635806568339e-09 0.0
0.0 1.702164328038392e-08 0.0
0.0 5.044699764209501e-08 0.0
0.0 -1.3307074485934847e-07 0.0
0.0 -2.1716581921478677e-06 0.0
0.0 -1.2675112384353156e-05 0.0
0.0 -5.0294689093211715e-05 0.0
0.0 -0.0001528491161996468 0.0
0.0 -0.0003718265794852835 0.0
0.0 -0.0007383429696761735 0.0
0.0 -0.0012078769705409366 0.0
0.0 -0.0016387423589685716 0.0
0.0 -0.0018696111128719002 0.0
0.0 -0.0018648304484640168 0.0
0.0 -0.001765571254706131 0.0
0.0 -0.0017398357350359775 0.0
0.0 -0.0017950053951197682 0.0
0.0 -0.0018185736041482796 0.0
0.0 -0.0017822405576656182 0.0
0.0 -0.0017683113365408831 0.0
0.0 -0.0017964629672039892 0.0
0.0 -0.0017999809873823574 0.0
0.0 -0.001777787286163105 0.0
0.0 -0.0017837375786775701 0.0
0.0 -0.001798214320381463 0.0
0.0 -0.0017859578517265282 0.0
0.0 -0.0017816030596705004 0.0
0.0 -0.001794278474088524 0.0
0.0 -0.0017889588500587888 0.0
0.0 -0.001782546326434056 0.0
0.0 -0.0017920982590832503 0.0
0.0 -0.001789334928146899 0.0
0.0 -0.001783773855852279 0.0
0.0 -0.0017913362184545836 0.0
0.0 -0.001788660175162101 0.0
0.0 -0.001784908041094127 0.0
0.0 -0.0017911855356113925 0.0
0.0 -0.001787563198763788 0.0
0.0 -0.0017861917859596556 0.0
0.0 -0.0017909539539830831 0.0
0.0 -0.0017864650165691442 0.0
0.0 -0.0017877727278950105 0.0
0.0 -0.0017901014813837019 0.0
0.0 -0.0017859487665200474 0.0
0.0 -0.0017893234658405812 0.0
0.0 -0.0017885167945406544 0.0
0.0 -0.0017865925082937873 0.0
0.0 -0.0017899898995609996 0.0
0.0 -0.0017869257263212355 0.0
0.0 -0.0017882536448004264 0.0
0.0 -0.0017890941178813863 0.0
0.0 -0.0017866458467251168 0.0
0.0 -0.0017895509347483562 0.0
0.0 -0.0017873713926108638 0.0
0.0 -0.001788068717133362 0.0
0.0 -0.0017889788088662855 0.0
0.0 -0.0017869067995156538 0.0
0.0 -0.0017893675415523963 0.0
0.0 -0.0017873181661199659 0.0
0.0 -0.0017883776473107385 0.0
0.0 -0.001788532779545534 0.0
0.0 -0.001787296812011904 0.0
0.0 -0.001789215270569818 0.0
0.0 -0.0017871335097798065 0.0
0.0 -0.00178888311646909 0.0
0.0 -0.0017878278992479457 0.0
0.0 -0.0017880167082295739 0.0
0.0 -0.0017886718538488331 0.0
0.0 -0.001787353099161667 0.0
0.0 -0.0017890571520638489 0.0
0.0 -0.0017872784142285857 0.0
0.0 -0.0017888465128437262 0.0
0.0 -0.0017877080151708642 0.0
0.0 -0.0017882859164238473 0.0
0.0 -0.0017883082104490253 0.0
0.0 -0.0017877268683304008 0.0
0.0 -0.0017887649106475164 0.0
0.0 -0.0017874104298929135 0.0
0.0 -0.0017889260184958378 0.0
0.0 -0.0017874002698963125 0.0
0.0 -0.0017888041055941597 0.0
0.0 -0.0017876263282109776 0.0
0.0 -0.0017885058554488954 0.0
0.0 -0.0017879649382782916 0.0
0.0 -0.0017881556057256975 0.0
0.0 -0.0017883030895133017 0.0
0.0 -0.0017878474676797306 0.0
0.0 -0.0017885691919773627 0.0
0.0 -0.0017876300406240097 0.0
0.0 -0.0017887358592958836 0.0
0.0 -0.0017875126591442355 0.0
0.0 -0.0017888079958487992 0.0
0.0 -0.0017874800841469996 0.0
0.0 -0.0017888075646903155 0.0
0.0 -0.0017875067173891035 0.0
0.0 -0.001788761334846952 0.0
0.0 -0.0017875664492152414 0.0
0.0 -0.001788693509565125 0.0
0.0 -0.0017876377324301564 0.0
0.0 -0.001788622627695449 0.0
0.0 -0.0017877050916669719 0.0
0.0 -0.0017885612516696568 0.0
0.0 -0.0017877585992698245 0.0
0.0 -0.0017885170170352015 0.0
0.0 -0.0017877925532156392 0.0
0.0 -0.0017884940310447372 0.0
0.0 -0.0017884940310447348 0.0
0.0 -0.0017877925532156162 0.0
0.0 -0.0017885170170352026 0.0
0.0 -0.001787758599269835 0.0
0.0 -0.0017885612516696705 0.0
0.0 -0.0017877050916669762 0.0
0.0 -0.0017886226276954474 0.0
0.0 -0.0017876377324301449 0.0
0.0 -0.0017886935095651265 0.0
0.0 -0.0017875664492152286 0.0
0.0 -0.0017887613348469547 0.0
0.0 -0.001787506717389093 0.0
0.0 -0.0017888075646903226 0.0
0.0 -0.0017874800841469836 0.0
0.0 -0.001788807995848786 0.0
0.0 -0.0017875126591442485 0.0
0.0 -0.0017887358592958715 0.0
0.0 -0.0017876300406240186 0.0
0.0 -0.0017885691919773431 0.0
0.0 -0.0017878474676797467 0.0
0.0 -0.001788303089513277 0.0
0.0 -0.0017881556057256999 0.0
0.0 -0.0017879649382782725 0.0
0.0 -0.001788505855448918 0.0
0.0 -0.0017876263282109771 0.0
0.0 -0.001788804105594167 0.0
0.0 -0.001787400269896306 0.0
0.0 -0.0017889260184958326 0.0
0.0 -0.0017874104298929159 0.0
0.0 -0.0017887649106474795 0.0
0.0 -0.0017877268683304552 0.0
0.0 -0.001788308210449009 0.0
0.0 -0.0017882859164239013 0.0
0.0 -0.0017877080151708319 0.0
0.0 -0.0017888465128437403 0.0
0.0 -0.0017872784142285599 0.0
0.0 -0.0017890571520638573 0.0
0.0 -0.0017873530991616893 0.0
0.0 -0.0017886718538487876 0.0
0.0 -0.0017880167082296365 0.0
0.0 -0.0017878278992478883 0.0
0.0 -0.0017888831164691542 0.0
0.0 -0.0017871335097797863 0.0
0.0 -0.0017892152705697893 0.0
0.0 -0.0017872968120119651 0.0
0.0 -0.0017885327795454235 0.0
0.0 -0.0017883776473108593 0.0
0.0 -0.0017873181661198717 0.0
0.0 -0.001789367541552436 0.0
0.0 -0.0017869067995157101 0.0
0.0 -0.0017889788088661723 0.0
0.0 -0.0017880687171335252 0.0
0.0 -0.0017873713926107183 0.0
0.0 -0.001789550934748425 0.0
0.0 -0.0017866458467251853 0.0
0.0 -0.0017890941178812208 0.0
0.0 -0.0017882536448006533 0.0
0.0 -0.0017869257263210586 0.0
0.0 -0.0017899898995610375 0.0
0.0 -0.0017865925082939415 0.0
0.0 -0.001788516794540363 0.0
0.0 -0.0017893234658408483 0.0
0.0 -0.0017859487665199704 0.0
0.0 -0.001790101481383484 0.0
0.0 -0.0017877727278954366 0.0
0.0 -0.0017864650165687918 0.0
0.0 -0.0017909539539830769 0.0
0.0 -0.001786191785960049 0.0
0.0 -0.0017875631987632158 0.0
0.0 -0.0017911855356116642 0.0
0.0 -0.001784908041094446 0.0
0.0 -0.0017886601751613612 0.0
0.0 -0.0017913362184551031 0.0
0.0 -0.0017837738558525542 0.0
0.0 -0.0017893349281459326 0.0
0.0 -0.0017920982590839802 0.0
0.0 -0.0017825463264344887 0.0
0.0 -0.0017889588500574378 0.0
0.0 -0.001794278474089283 0.0
0.0 -0.001781603059671519 0.0
0.0 -0.0017859578517247145 0.0
0.0 -0.0017982143203815718 0.0
0.0 -0.001783737578679885 0.0
0.0 -0.0017777872861615145 0.0
0.0 -0.001799980987380165 0.0
0.0 -0.0017964629672071917 0.0
0.0 -0.0017683113365427317 0.0
0.0 -0.001782240557660587 0.0
0.0 -0.0018185736041463787 0.0
0.0 -0.001795005395127368 0.0
0.0 -0.001739835735039879 0.0
0.0 -0.001765571254694974 0.0
0.0 -0.001864830448452159 0.0
0.0 -0.0018696111128865345 0.0
0.0 -0.0016387423590191476 0.0
0.0 -0.001207876970610779 0.0
0.0 -0.0007383429697401913 0.0
0.0 -0.00037182657952886117 0.0
0.0 -0.00015284911622261228 0.0
0.0 -5.029468910267174e-05 0.0
0.0 -1.2675112387347616e-05 0.0
0.0 -2.1716581928326066e-06 0.0
0.0 -1.3307074494964756e-07 0.0
0.0 5.0446997645676484e-08 0.0
0.0 1.7021643285064475e-08 0.0
0.0 1.7347635815702088e-09 0.0
0.0 -2.715598235471823e-10 0.0
0.0 -1.0136609618329913e-10 0.0
0.0 -5.426910932128669e-12 0.0
0.0 2.4890126456668576e-12 0.0
0.0 4.190348796515246e-13 0.0
0.0 -3.601200061915849e-14 0.0
0.0 -1.4424955864170693e-14 0.0
0.0 1.5080759602154767e-16 0.0
0.0 3.9262537088659464e-16 0.0
0.0 9.129063057036956e-18 0.0
0.0 -9.792368981631086e-18 0.0
0.0 -3.3992601333243145e-19 0.0
0.0 2.376539607806493e-19 0.0
0.0 6.2708627341324445e-21 0.0
0.0 -5.648440718227803e-21 0.0
0.0 -3.535902122989755e-24 0.0
0.0 1.2692695005743032e-22 0.0
0.0 -5.0124091087759875e-24 0.0
0.0 -2.5128266447178655e-24 0.0
0.0 2.4227158270006466e-25 0.0
0.0 3.802130434471734e-26 0.0
0.0 -7.5230628958362e-27 0.0
0.0 -2.2798318552037926e-28 0.0
0.0 1.682619603237682e-28 0.0
0.0 -9.511455141700255e-30 0.0
0.0 -2.4313196184585306e-30 0.0
0.0 4.092022117380929e-31 0.0
0.0 5.9367482385398996e-33 0.0
0.0 -8.255914384411932e-33 0.0
0.0 7.723561526173112e-34 0.0
0.0 6.480952015410048e-35 0.0
0.0 -2.137164915264023e-35 0.0
0.0 1.3862258028544299e-36 0.0
0.0 2.0648733922574362e-37 0.0
0.0 -5.021151123492185e-38 0.0
0.0 2.951658253236754e-39 0.0
0.0 4.6393677266931104e-40 0.0
0.0 -1.1305825090829597e-40 0.0
0.0 8.001547374793786e-42 0.0
0.0 7.325849521995088e-43 0.0
0.0 -2.377135037853065e-43 0.0
0.0 2.331629159208724e-44 0.0
0.0 3.0951623506297884e-46 0.0
0.0 -4.197121648333956e-46 0.0
0.0 6.063961683030104e-47 0.0
0.0 -3.034909181810743e-48 0.0
0.0 -4.547394783885145e-49 0.0
0.0 1.2115952669904966e-49 0.0
0.0 -1.3115234684208846e-50 0.0
0.0 3.618325870644658e-52 0.0
0.0 1.3618370055351815e-52 0.0
0.0 -2.8864265047970723e-53 0.0
0.0 3.0063444064844004e-54 0.0
0.0 -1.0413069437853284e-55 0.0
0.0 -2.5468468267158996e-56 0.0
0.0 6.099262896657028e-57 0.0
0.0 -7.414295378546717e-58 0.0
0.0 4.866823992590826e-59 0.0
0.0 1.5434472588476455e-60 0.0
0.0 -9.77819116902235e-61 0.0
0.0 1.6282932540316653e-61 0.0
0.0 -1.7322017787413902e-62 0.0
0.0 1.0617075407421648e-63 0.0
0.0 3.38657233058867e-65 0.0
0.0 -2.1178827629410197e-65 0.0
0.0 3.697234320541261e-66 0.0
0.0 -4.4397159436270124e-67 0.0
0.0 3.855187648589614e-68 0.0
0.0 -1.7743928777062424e-69 0.0
0.0 -1.5629152519894305e-70 0.0
0.0 5.531458708425652e-71 0.0
0.0 -9.246541213667983e-72 0.0
0.0 1.1755258844843489e-72 0.0
0.0 -1.2240853231709298e-73 0.0
0.0 1.019006181303037e-74 0.0
0.0 -5.4882658432553145e-76 0.0
0.0 -1.571050969713275e-77 0.0
0.0 1.0354534330384426e-77 0.0
0.0 -2.0011071845034498e-78 0.0
0.0 2.961657656257487e-79 0.0
0.0 -3.831118437622847e-80 0.0
0.0 4.540578024591622e-81 0.0
0.0 -5.0445040422815495e-82 0.0
0.0 5.3224474986764e-83 0.0
0.0 -5.376695044131051e-84 0.0
0.0 5.226856403508272e-85 0.0
0.0 -4.90241409737959e-86 0.0
0.0 4.43391674491149e-87 0.0
0.0 -3.842775697503217e-88 0.0
0.0 3.1284664926334348e-89 0.0
0.0 -2.250146096227893e-90 0.0
0.0 1.0980397415064036e-91 0.0
0.0 4.904575453181635e-93 0.0
0.0 4.903349825195763e-93 0.0
0.0 1.098127033852815e-91 0.0
0.0 -2.250201292541841e-90 0.0
0.0 3.1284985340337236e-89 0.0
0.0 -3.842792919335488e-88 0.0
0.0 4.433925328616398e-87 0.0
0.0 -4.9024180648904656e-86 0.0
0.0 5.22685812012834e-85 0.0
0.0 -5.376695774088769e-84 0.0
0.0 5.322447849464555e-83 0.0
0.0 -5.044504267944197e-82 0.0
0.0 4.540578210166479e-81 0.0
0.0 -3.83111859979544e-80 0.0
0.0 2.9616577917750084e-79 0.0
0.0 -2.001107289492388e-78 0.0
0.0 1.0354535080911386e-77 0.0
0.0 -1.5710514650442784e-77 0.0
0.0 -5.488265541699469e-76 0.0
0.0 1.0190061644455084e-74 0.0
0.0 -1.2240853146040204e-73 0.0
0.0 1.1755258805957157e-72 0.0
0.0 -9.24654119832884e-72 0.0
0.0 5.531458703312678e-71 0.0
0.0 -1.5629152504181405e-70 0.0
0.0 -1.7743928785268362e-69 0.0
0.0 3.85518764949277e-68 0.0
0.0 -4.4397159446468863e-67 0.0
0.0 3.6972343215305227e-66 0.0
0.0 -2.1178827638034263e-65 0.0
0.0 3.3865723378243254e-65 0.0
0.0 1.0617075401327858e-63 0.0
0.0 -1.7322017782340147e-62 0.0
0.0 1.628293253642887e-61 0.0
0.0 -9.778191166627622e-61 0.0
0.0 1.543447258094456e-60 0.0
0.0 4.866823991930396e-59 0.0
0.0 -7.41429537708318e-58 0.0
0.0 6.099262895168111e-57 0.0
0.0 -2.5468468258302057e-56 0.0
0.0 -1.0413069438277347e-55 0.0
0.0 3.006344405875516e-54 0.0
0.0 -2.886426503991727e-53 0.0
0.0 1.3618370049781216e-52 0.0
0.0 3.618325871625206e-52 0.0
0.0 -1.311523468143198e-50 0.0
0.0 1.211595266601963e-49 0.0
0.0 -4.547394781430712e-49 0.0
0.0 -3.03490918184797e-48 0.0
0.0 6.063961681405074e-47 0.0
0.0 -4.1971216466056765e-46 0.0
0.0 3.095162343765679e-46 0.0
0.0 2.3316291587566697e-44 0.0
0.0 -2.3771350369699664e-43 0.0
0.0 7.325849516593547e-43 0.0
0.0 8.00154737411667e-42 0.0
0.0 -1.1305825086837901e-40 0.0
0.0 4.639367723690708e-40 0.0
0.0 2.9516582532772944e-39 0.0
0.0 -5.021151121703781e-38 0.0
0.0 2.0648733908521976e-37 0.0
0.0 1.3862258028402786e-36 0.0
0.0 -2.1371649144328285e-35 0.0
0.0 6.480952009808274e-35 0.0
0.0 7.723561525101406e-34 0.0
0.0 -8.255914380597573e-33 0.0
0.0 5.936748221904151e-33 0.0
0.0 4.092022116229538e-31 0.0
0.0 -2.431319616954029e-30 0.0
0.0 -9.511455143059686e-30 0.0
0.0 1.6826196025148244e-28 0.0
0.0 -2.2798318513986547e-28 0.0
0.0 -7.523062893684012e-27 0.0
0.0 3.802130431799329e-26 0.0
0.0 2.42271582681695e-25 0.0
0.0 -2.5128266433750366e-24 0.0
0.0 -5.0124091113368784e-24 0.0
0.0 1.2692695000027534e-22 0.0
0.0 -3.5359018978178e-24 0.0
0.0 -5.6484407160062674e-21 0.0
0.0 6.270862721600387e-21 0.0
0.0 2.3765396069725856e-19 0.0
0.0 -3.399260127945415e-19 0.0
0.0 -9.7923689783247e-18 0.0
0.0 9.129063038091557e-18 0.0
0.0 3.9262537074692854e-16 0.0
0.0 1.5080759653009716e-16 0.0
0.0 -1.4424955858380185e-14 0.0
0.0 -3.6012000624393064e-14 0.0
0.0 4.190348794454358e-13 0.0
0.0 2.489012645224739e-12 0.0
0.0 -5.426910927207184e-12 0.0
0.0 -1.0136609615104644e-10 0.0
0.0 -2.7155982355091475e-10 0.0
0.0 1.7347635806567336e-09 0.0
0.0 1.702164328038394e-08 0.0
0.0 5.0446997642095705e-08 0.0
0.0 -1.330707448593552e-07 0.0
0.0 -2.1716581921478838e-06 0.0
0.0 -1.2675112384353012e-05 0.0
0.0 -5.029468909321184e-05 0.0
0.0 -0.00015284911619964782 0.0
0.0 -0.00037182657948528226 0.0
0.0 -0.0007383429696761771 0.0
0.0 -0.001207876970540944 0.0
0.0 -0.0016387423589685705 0.0
0.0 -0.0018696111128718995 0.0
0.0 -0.0018648304484640132 0.0
0.0 -0.001765571254706123 0.0
0.0 -0.0017398357350359745 0.0
0.0 -0.0017950053951197706 0.0
0.0 -0.0018185736041482759 0.0
0.0 -0.0017822405576656266 0.0
0.0 -0.0017683113365408822 0.0
0.0 -0.0017964629672039887 0.0
0.0 -0.001799980987382357 0.0
0.0 -0.001777787286163111 0.0
0.0 -0.00178373757867758 0.0
0.0 -0.001798214320381466 0.0
0.0 -0.0017859578517265314 0.0
0.0 -0.0017816030596705056 0.0
0.0 -0.0017942784740885382 0.0
0.0 -0.0017889588500587753 0.0
0.0 -0.0017825463264340617 0.0
0.0 -0.0017920982590832546 0.0
0.0 -0.0017893349281468888 0.0
0.0 -0.0017837738558522842 0.0
0.0 -0.0017913362184545755 0.0
0.0 -0.0017886601751620976 0.0
0.0 -0.001784908041094138 0.0
0.0 -0.0017911855356113884 0.0
0.0 -0.0017875631987637917 0.0
0.0 -0.0017861917859596527 0.0
0.0 -0.0017909539539830662 0.0
0.0 -0.0017864650165691455 0.0
0.0 -0.0017877727278950233 0.0
0.0 -0.0017901014813837043 0.0
0.0 -0.0017859487665200374 0.0
0.0 -0.0017893234658405506 0.0
0.0 -0.0017885167945406572 0.0
0.0 -0.0017865925082937628 0.0
0.0 -0.0017899898995610106 0.0
0.0 -0.0017869257263212492 0.0
0.0 -0.0017882536448004256 0.0
0.0 -0.0017890941178813895 0.0
0.0 -0.0017866458467251393 0.0
0.0 -0.001789550934748348 0.0
0.0 -0.001787371392610868 0.0
0.0 -0.0017880687171333782 0.0
0.0 -0.0017889788088662987 0.0
0.0 -0.0017869067995156637 0.0
0.0 -0.0017893675415523967 0.0
0.0 -0.00178731816611995 0.0
0.0 -0.0017883776473107361 0.0
0.0 -0.0017885327795455206 0.0
0.0 -0.0017872968120119074 0.0
0.0 -0.0017892152705698179 0.0
0.0 -0.0017871335097798021 0.0
0.0 -0.0017888831164690944 0.0
0.0 -0.0017878278992479479 0.0
0.0 -0.0017880167082295682 0.0
0.0 -0.0017886718538488427 0.0
0.0 -0.001787353099161655 0.0
0.0 -0.0017890571520638753 0.0
0.0 -0.0017872784142285818 0.0
0.0 -0.0017888465128437082 0.0
0.0 -0.0017877080151708607 0.0
0.0 -0.0017882859164238564 0.0
0.0 -0.0017883082104490503 0.0
0.0 -0.0017877268683304146 0.0
0.0 -0.0017887649106475133 0.0
0.0 -0.0017874104298929076 0.0
0.0 -0.001788926018495835 0.0
0.0 -0.0017874002698963038 0.0
0.0 -0.0017888041055941432 0.0
0.0 -0.0017876263282109834 0.0
0.0 -0.001788505855448898 0.0
0.0 -0.001787964938278295 0.0
0.0 -0.0017881556057256828 0.0
0.0 -0.0017883030895132948 0.0
0.0 -0.0017878474676797334 0.0
0.0 -0.0017885691919773577 0.0
0.0 -0.0017876300406240114 0.0
0.0 -0.0017887358592958756 0.0
0.0 -0.0017875126591442268 0.0
0.0 -0.0017888079958487922 0.0
0.0 -0.001787480084146978 0.0
0.0 -0.0017888075646903209 0.0
0.0 -0.0017875067173890981 0.0
0.0 -0.0017887613348469586 0.0
0.0 -0.0017875664492152342 0.0
0.0 -0.0017886935095651172 0.0
0.0 -0.0017876377324301457 0.0
0.0 -0.0017886226276954446 0.0
0.0 -0.0017877050916669662 0.0
0.0 -0.0017885612516696462 0.0
0.0 -0.0017877585992698338 0.0
0.0 -0.001788517017035207 0.0
0.0 -0.0017877925532156257 0.0
0.0 -0.0017884940310447382 0.0
0.0 -0.0017884940310447352 0.0
0.0 -0.0017877925532156266 0.0
0.0 -0.0017885170170352188 0.0
0.0 -0.001787758599269828 0.0
0.0 -0.0017885612516696568 0.0
0.0 -0.001787705091666966 0.0
0.0 -0.0017886226276954485 0.0
0.0 -0.0017876377324301486 0.0
0.0 -0.0017886935095651265 0.0
0.0 -0.001787566449215236 0.0
0.0 -0.0017887613348469542 0.0
0.0 -0.0017875067173890808 0.0
0.0 -0.0017888075646903079 0.0
0.0 -0.0017874800841470061 0.0
0.0 -0.001788807995848788 0.0
0.0 -0.001787512659144236 0.0
0.0 -0.0017887358592958778 0.0
0.0 -0.0017876300406240407 0.0
0.0 -0.0017885691919773494 0.0
0.0 -0.0017878474676797406 0.0
0.0 -0.001788303089513274 0.0
0.0 -0.0017881556057257114 0.0
0.0 -0.0017879649382782645 0.0
0.0 -0.001788505855448909 0.0
0.0 -0.0017876263282109596 0.0
0.0 -0.0017888041055941631 0.0
0.0 -0.0017874002698963067 0.0
0.0 -0.0017889260184958248 0.0
0.0 -0.001787410429892925 0.0
0.0 -0.0017887649106474856 0.0
0.0 -0.0017877268683304452 0.0
0.0 -0.0017883082104489807 0.0
0.0 -0.0017882859164238768 0.0
0.0 -0.0017877080151708427 0.0
0.0 -0.0017888465128437388 0.0
0.0 -0.0017872784142285705 0.0
0.0 -0.0017890571520638428 0.0
0.0 -0.0017873530991616947 0.0
0.0 -0.0017886718538487755 0.0
0.0 -0.0017880167082296428 0.0
0.0 -0.0017878278992478705 0.0
0.0 -0.00178888311646916 0.0
0.0 -0.0017871335097797867 0.0
0.0 -0.0017892152705697936 0.0