# vtk DataFile Version 2.0
data_185
ASCII
DATASET UNSTRUCTURED_GRID
POINTS 804 float
0.0 0.0 0.0
0.1 0.0 0.0
0.1 20.0 0.0
0.0 20.0 0.0
0.0 0.0 -0.1
0.1 0.0 -0.1
0.1 20.0 -0.1
0.0 20.0 -0.1
0.1 0.09999999999992462 0.0
0.1 0.1999999999998517 0.0
0.1 0.2999999999997818 0.0
0.1 0.399999999999712 0.0
0.1 0.4999999999996377 0.0
0.1 0.5999999999995541 0.0
0.1 0.6999999999994495 0.0
0.1 0.7999999999993355 0.0
0.1 0.8999999999992101 0.0
0.1 0.999999999999102 0.0
0.1 1.099999999999006 0.0
0.1 1.199999999998936 0.0
0.1 1.299999999998867 0.0
0.1 1.399999999998797 0.0
0.1 1.499999999998727 0.0
0.1 1.599999999998657 0.0
0.1 1.699999999998587 0.0
0.1 1.799999999998517 0.0
0.1 1.899999999998447 0.0
0.1 1.999999999998378 0.0
0.1 2.099999999998308 0.0
0.1 2.199999999998238 0.0
0.1 2.299999999998168 0.0
0.1 2.399999999998067 0.0
0.1 2.499999999997942 0.0
0.1 2.599999999997706 0.0
0.1 2.699999999997444 0.0
0.1 2.799999999997153 0.0
0.1 2.899999999996861 0.0
0.1 2.999999999996569 0.0
0.1 3.099999999996277 0.0
0.1 3.199999999995984 0.0
0.1 3.299999999995693 0.0
0.1 3.399999999995401 0.0
0.1 3.499999999995108 0.0
0.1 3.599999999994816 0.0
0.1 3.699999999994525 0.0
0.1 3.799999999994232 0.0
0.1 3.89999999999394 0.0
0.1 3.999999999993648 0.0
0.1 4.099999999993356 0.0
0.1 4.199999999993064 0.0
0.1 4.299999999992772 0.0
0.1 4.399999999992479 0.0
0.1 4.499999999992188 0.0
0.1 4.599999999991895 0.0
0.1 4.699999999991603 0.0
0.1 4.799999999991311 0.0
0.1 4.899999999991019 0.0
0.1 4.999999999990727 0.0
0.1 5.099999999990436 0.0
0.1 5.199999999990144 0.0
0.1 5.299999999989851 0.0
0.1 5.399999999989559 0.0
0.1 5.499999999989267 0.0
0.1 5.599999999988975 0.0
0.1 5.699999999988683 0.0
0.1 5.799999999988391 0.0
0.1 5.899999999988099 0.0
0.1 5.999999999987806 0.0
0.1 6.099999999987515 0.0
0.1 6.199999999987222 0.0
0.1 6.299999999986929 0.0
0.1 6.399999999986638 0.0
0.1 6.499999999986345 0.0
0.1 6.599999999986054 0.0
0.1 6.699999999985762 0.0
0.1 6.79999999998547 0.0
0.1 6.899999999985177 0.0
0.1 6.999999999984885 0.0
0.1 7.099999999984593 0.0
0.1 7.199999999984302 0.0
0.1 7.299999999984009 0.0
0.1 7.399999999983717 0.0
0.1 7.499999999983426 0.0
0.1 7.599999999983132 0.0
0.1 7.699999999982841 0.0
0.1 7.799999999982549 0.0
0.1 7.899999999982256 0.0
0.1 7.999999999982034 0.0
0.1 8.099999999981964 0.0
0.1 8.199999999982062 0.0
0.1 8.299999999982214 0.0
0.1 8.399999999982366 0.0
0.1 8.499999999982517 0.0
0.1 8.59999999998267 0.0
0.1 8.699999999982822 0.0
0.1 8.799999999982973 0.0
0.1 8.899999999983125 0.0
0.1 8.999999999983277 0.0
0.1 9.09999999998343 0.0
0.1 9.19999999998358 0.0
0.1 9.299999999983733 0.0
0.1 9.399999999983885 0.0
0.1 9.499999999984038 0.0
0.1 9.599999999984188 0.0
0.1 9.69999999998434 0.0
0.1 9.799999999984493 0.0
0.1 9.899999999984646 0.0
0.1 9.999999999984798 0.0
0.1 10.09999999998495 0.0
0.1 10.1999999999851 0.0
0.1 10.29999999998525 0.0
0.1 10.39999999998541 0.0
0.1 10.49999999998556 0.0
0.1 10.59999999998571 0.0
0.1 10.69999999998586 0.0
0.1 10.79999999998601 0.0
0.1 10.89999999998616 0.0
0.1 10.99999999998632 0.0
0.1 11.09999999998647 0.0
0.1 11.19999999998662 0.0
0.1 11.29999999998677 0.0
0.1 11.39999999998693 0.0
0.1 11.49999999998708 0.0
0.1 11.59999999998723 0.0
0.1 11.69999999998738 0.0
0.1 11.79999999998754 0.0
0.1 11.89999999998769 0.0
0.1 11.99999999998784 0.0
0.1 12.09999999998799 0.0
0.1 12.19999999998814 0.0
0.1 12.2999999999883 0.0
0.1 12.39999999998845 0.0
0.1 12.4999999999886 0.0
0.1 12.59999999998875 0.0
0.1 12.6999999999889 0.0
0.1 12.79999999998905 0.0
0.1 12.89999999998921 0.0
0.1 12.99999999998936 0.0
0.1 13.09999999998951 0.0
0.1 13.19999999998966 0.0
0.1 13.29999999998982 0.0
0.1 13.39999999998997 0.0
0.1 13.49999999999012 0.0
0.1 13.59999999999027 0.0
0.1 13.69999999999042 0.0
0.1 13.79999999999057 0.0
0.1 13.89999999999073 0.0
0.1 13.99999999999088 0.0
0.1 14.09999999999103 0.0
0.1 14.19999999999118 0.0
0.1 14.29999999999134 0.0
0.1 14.39999999999149 0.0
0.1 14.49999999999164 0.0
0.1 14.59999999999179 0.0
0.1 14.69999999999194 0.0
0.1 14.7999999999921 0.0
0.1 14.89999999999225 0.0
0.1 14.9999999999924 0.0
0.1 15.09999999999255 0.0
0.1 15.1999999999927 0.0
0.1 15.29999999999285 0.0
0.1 15.39999999999301 0.0
0.1 15.49999999999316 0.0
0.1 15.59999999999331 0.0
0.1 15.69999999999346 0.0
0.1 15.79999999999362 0.0
0.1 15.89999999999377 0.0
0.1 15.99999999999392 0.0
0.1 16.09999999999407 0.0
0.1 16.19999999999422 0.0
0.1 16.29999999999437 0.0
0.1 16.39999999999453 0.0
0.1 16.49999999999468 0.0
0.1 16.59999999999483 0.0
0.1 16.69999999999498 0.0
0.1 16.79999999999514 0.0
0.1 16.89999999999528 0.0
0.1 16.99999999999544 0.0
0.1 17.09999999999559 0.0
0.1 17.19999999999574 0.0
0.1 17.29999999999589 0.0
0.1 17.39999999999605 0.0
0.1 17.4999999999962 0.0
0.1 17.59999999999635 0.0
0.1 17.6999999999965 0.0
0.1 17.79999999999665 0.0
0.1 17.89999999999681 0.0
0.1 17.99999999999696 0.0
0.1 18.09999999999711 0.0
0.1 18.19999999999726 0.0
0.1 18.29999999999742 0.0
0.1 18.39999999999757 0.0
0.1 18.49999999999772 0.0
0.1 18.59999999999787 0.0
0.1 18.69999999999802 0.0
0.1 18.79999999999818 0.0
0.1 18.89999999999833 0.0
0.1 18.99999999999848 0.0
0.1 19.09999999999863 0.0
0.1 19.19999999999878 0.0
0.1 19.29999999999894 0.0
0.1 19.39999999999909 0.0
0.1 19.49999999999924 0.0
0.1 19.59999999999939 0.0
0.1 19.69999999999955 0.0
0.1 19.7999999999997 0.0
0.1 19.89999999999985 0.0
0.0 19.9 0.0
0.0 19.8 0.0
0.0 19.7 0.0
0.0 19.6 0.0
0.0 19.5 0.0
0.0 19.4 0.0
0.0 19.3 0.0
0.0 19.2 0.0
0.0 19.1 0.0
0.0 19.0 0.0
0.0 18.9 0.0
0.0 18.8 0.0
0.0 18.7 0.0
0.0 18.6 0.0
0.0 18.5 0.0
0.0 18.4 0.0
0.0 18.3 0.0
0.0 18.2 0.0
0.0 18.1 0.0
0.0 18.0 0.0
0.0 17.9 0.0
0.0 17.8 0.0
0.0 17.7 0.0
0.0 17.6 0.0
0.0 17.5 0.0
0.0 17.4 0.0
0.0 17.3 0.0
0.0 17.2 0.0
0.0 17.09999999999999 0.0
0.0 17.0 0.0
0.0 16.9 0.0
0.0 16.8 0.0
0.0 16.7 0.0
0.0 16.59999999999999 0.0
0.0 16.49999999999999 0.0
0.0 16.4 0.0
0.0 16.29999999999999 0.0
0.0 16.2 0.0
0.0 16.09999999999999 0.0
0.0 15.99999999999999 0.0
0.0 15.89999999999999 0.0
0.0 15.79999999999999 0.0
0.0 15.69999999999999 0.0
0.0 15.59999999999999 0.0
0.0 15.49999999999999 0.0
0.0 15.39999999999999 0.0
0.0 15.29999999999999 0.0
0.0 15.19999999999999 0.0
0.0 15.09999999999999 0.0
0.0 14.99999999999999 0.0
0.0 14.89999999999999 0.0
0.0 14.79999999999999 0.0
0.0 14.69999999999999 0.0
0.0 14.59999999999999 0.0
0.0 14.49999999999999 0.0
0.0 14.39999999999999 0.0
0.0 14.29999999999999 0.0
0.0 14.19999999999999 0.0
0.0 14.09999999999999 0.0
0.0 13.99999999999999 0.0
0.0 13.89999999999999 0.0
0.0 13.79999999999999 0.0
0.0 13.69999999999999 0.0
0.0 13.59999999999999 0.0
0.0 13.49999999999999 0.0
0.0 13.39999999999999 0.0
0.0 13.29999999999999 0.0
0.0 13.19999999999999 0.0
0.0 13.09999999999999 0.0
0.0 12.99999999999999 0.0
0.0 12.89999999999999 0.0
0.0 12.79999999999999 0.0
0.0 12.69999999999999 0.0
0.0 12.59999999999999 0.0
0.0 12.49999999999999 0.0
0.0 12.39999999999999 0.0
0.0 12.29999999999999 0.0
0.0 12.19999999999999 0.0
0.0 12.09999999999999 0.0
0.0 11.99999999999999 0.0
0.0 11.89999999999999 0.0
0.0 11.79999999999999 0.0
0.0 11.69999999999999 0.0
0.0 11.59999999999999 0.0
0.0 11.49999999999999 0.0
0.0 11.39999999999999 0.0
0.0 11.29999999999999 0.0
0.0 11.19999999999999 0.0
0.0 11.09999999999999 0.0
0.0 10.99999999999999 0.0
0.0 10.89999999999999 0.0
0.0 10.79999999999999 0.0
0.0 10.69999999999999 0.0
0.0 10.59999999999999 0.0
0.0 10.49999999999999 0.0
0.0 10.39999999999999 0.0
0.0 10.29999999999999 0.0
0.0 10.19999999999999 0.0
0.0 10.09999999999999 0.0
0.0 9.999999999999993 0.0
0.0 9.899999999999993 0.0
0.0 9.799999999999994 0.0
0.0 9.699999999999992 0.0
0.0 9.599999999999993 0.0
0.0 9.499999999999993 0.0
0.0 9.399999999999993 0.0
0.0 9.299999999999995 0.0
0.0 9.199999999999996 0.0
0.0 9.099999999999994 0.0
0.0 8.999999999999995 0.0
0.0 8.899999999999995 0.0
0.0 8.799999999999994 0.0
0.0 8.699999999999994 0.0
0.0 8.599999999999994 0.0
0.0 8.499999999999995 0.0
0.0 8.399999999999995 0.0
0.0 8.299999999999994 0.0
0.0 8.199999999999994 0.0
0.0 8.099999999999994 0.0
0.0 7.999999999999993 0.0
0.0 7.899999999999995 0.0
0.0 7.799999999999995 0.0
0.0 7.699999999999996 0.0
0.0 7.599999999999996 0.0
0.0 7.499999999999996 0.0
0.0 7.399999999999995 0.0
0.0 7.299999999999995 0.0
0.0 7.199999999999996 0.0
0.0 7.099999999999994 0.0
0.0 6.999999999999995 0.0
0.0 6.899999999999995 0.0
0.0 6.799999999999995 0.0
0.0 6.699999999999996 0.0
0.0 6.599999999999994 0.0
0.0 6.499999999999995 0.0
0.0 6.399999999999997 0.0
0.0 6.299999999999997 0.0
0.0 6.199999999999996 0.0
0.0 6.099999999999996 0.0
0.0 5.999999999999996 0.0
0.0 5.899999999999997 0.0
0.0 5.799999999999997 0.0
0.0 5.699999999999996 0.0
0.0 5.599999999999996 0.0
0.0 5.499999999999996 0.0
0.0 5.399999999999995 0.0
0.0 5.299999999999995 0.0
0.0 5.199999999999996 0.0
0.0 5.099999999999996 0.0
0.0 4.999999999999998 0.0
0.0 4.899999999999999 0.0
0.0 4.799999999999997 0.0
0.0 4.699999999999998 0.0
0.0 4.599999999999998 0.0
0.0 4.499999999999996 0.0
0.0 4.399999999999997 0.0
0.0 4.299999999999997 0.0
0.0 4.199999999999998 0.0
0.0 4.099999999999998 0.0
0.0 3.999999999999996 0.0
0.0 3.899999999999999 0.0
0.0 3.799999999999997 0.0
0.0 3.699999999999996 0.0
0.0 3.599999999999998 0.0
0.0 3.5 0.0
0.0 3.399999999999999 0.0
0.0 3.299999999999997 0.0
0.0 3.199999999999999 0.0
0.0 3.099999999999998 0.0
0.0 3.0 0.0
0.0 2.899999999999999 0.0
0.0 2.799999999999997 0.0
0.0 2.699999999999999 0.0
0.0 2.599999999999998 0.0
0.0 2.499999999999996 0.0
0.0 2.399999999999999 0.0
0.0 2.299999999999997 0.0
0.0 2.199999999999999 0.0
0.0 2.100000000000001 0.0
0.0 2.0 0.0
0.0 1.899999999999999 0.0
0.0 1.800000000000001 0.0
0.0 1.699999999999999 0.0
0.0 1.599999999999998 0.0
0.0 1.5 0.0
0.0 1.399999999999999 0.0
0.0 1.299999999999997 0.0
0.0 1.199999999999999 0.0
0.0 1.099999999999998 0.0
0.0 1.0 0.0
0.0 0.8999999999999986 0.0
0.0 0.8000000000000007 0.0
0.0 0.6999999999999993 0.0
0.0 0.6000000000000014 0.0
0.0 0.5 0.0
0.0 0.3999999999999986 0.0
0.0 0.3000000000000007 0.0
0.0 0.1999999999999993 0.0
[...]
POINT_DATA 804
VECTORS displacement double
0.0 0.0 0.0
0.0 0.0 0.0
0.0 -0.0017878368095753155 0.0
0.0 -0.0017878368095753058 0.0
0.0 0.0 0.0
0.0 0.0 0.0
0.0 -0.001787836809575306 0.0
0.0 -0.0017878368095753045 0.0
0.0 2.0568195602304758e-52 0.0
0.0 -3.13393572142829e-51 0.0
0.0 1.213719577288751e-50 0.0
0.0 8.928381177086228e-50 0.0
0.0 -1.3173785862112873e-48 0.0
0.0 4.096987939749455e-48 0.0
0.0 4.558464628653597e-47 0.0
0.0 -5.208024965647894e-46 0.0
0.0 7.853072511500654e-46 0.0
0.0 2.3369878483592785e-44 0.0
0.0 -1.7885258879300096e-43 0.0
0.0 -2.3163984632378287e-43 0.0
0.0 1.0660055142540315e-41 0.0
0.0 -4.3386140859832363e-41 0.0
0.0 -3.3393801403900214e-40 0.0
0.0 3.8048507698324154e-39 0.0
0.0 -3.4000682901829864e-40 0.0
0.0 -1.890574881822752e-37 0.0
0.0 7.86027267345918e-37 0.0
0.0 6.255268761340289e-36 0.0
0.0 -6.06258855997385e-35 0.0
0.0 -9.637764197432414e-35 0.0
0.0 3.1750053882953635e-33 0.0
0.0 -4.603237196787991e-33 0.0
0.0 -1.3493982169861252e-31 0.0
0.0 5.310832301955908e-31 0.0
0.0 4.967976263897388e-30 0.0
0.0 -3.295637638834175e-29 0.0
0.0 -1.655983507493088e-28 0.0
0.0 1.6536681585396437e-27 0.0
0.0 5.29818358799091e-27 0.0
0.0 -7.409537013381183e-26 0.0
0.0 -1.7991107704585798e-25 0.0
0.0 3.082728785629933e-24 0.0
0.0 7.269895414248103e-24 0.0
0.0 -1.2019073911495064e-22 0.0
0.0 -3.51987055457752e-22 0.0
0.0 4.306820413036269e-21 0.0
0.0 1.8192877229823967e-20 0.0
0.0 -1.3305849594374545e-19 0.0
0.0 -8.910817188962222e-19 0.0
0.0 2.9171996272418893e-18 0.0
0.0 3.788204383688785e-17 0.0
0.0 8.575275469963543e-19 0.0
0.0 -1.261419067149615e-15 0.0
0.0 -4.161265767411621e-15 0.0
0.0 2.518801858571019e-14 0.0
0.0 2.2789193091728796e-13 0.0
0.0 2.0612316917030173e-13 0.0
0.0 -5.76021479321808e-12 0.0
0.0 -3.4190889068214473e-11 0.0
0.0 -1.9896863712186296e-11 0.0
0.0 8.066226933792024e-10 0.0
0.0 5.311015829037075e-09 0.0
0.0 1.3243904115856298e-08 0.0
0.0 -3.987928171131812e-08 0.0
0.0 -5.861268385932486e-07 0.0
0.0 -3.4420774464294747e-06 0.0
0.0 -1.4288238086273877e-05 0.0
0.0 -4.6934686162539874e-05 0.0
0.0 -0.0001274266032805095 0.0
0.0 -0.0002919061287462346 0.0
0.0 -0.0005700944027118227 0.0
0.0 -0.000954145890766313 0.0
0.0 -0.0013729759180289853 0.0
0.0 -0.001707808791901595 0.0
0.0 -0.0018635066108941376 0.0
0.0 -0.001847986937698501 0.0
0.0 -0.001772475041294738 0.0
0.0 -0.00174840397519943 0.0
0.0 -0.001784785264553587 0.0
0.0 -0.0018113398095514549 0.0
0.0 -0.0017935009383928204 0.0
0.0 -0.0017727846654569269 0.0
0.0 -0.0017837370258042932 0.0
0.0 -0.0017986177993085156 0.0
0.0 -0.0017896148049329885 0.0
0.0 -0.0017796962432641084 0.0
0.0 -0.0017884376948286086 0.0
0.0 -0.0017938592790233978 0.0
0.0 -0.0017853728582699325 0.0
0.0 -0.0017841802406283736 0.0
0.0 -0.0017914370883823064 0.0
0.0 -0.0017890264400145315 0.0
0.0 -0.00178436907066938 0.0
0.0 -0.00178893912143679 0.0
0.0 -0.0017900325144302876 0.0
0.0 -0.0017855325060428544 0.0
0.0 -0.0017876962256509036 0.0
0.0 -0.001789918054161633 0.0
0.0 -0.0017863969906902555 0.0
0.0 -0.0017873125043131545 0.0
0.0 -0.0017895620717815063 0.0
0.0 -0.0017868279230165334 0.0
0.0 -0.0017873423361078476 0.0
0.0 -0.0017892342208845518 0.0
0.0 -0.001786969368280707 0.0
0.0 -0.0017875585454831104 0.0
0.0 -0.001788944619605917 0.0
0.0 -0.0017869757595268976 0.0
0.0 -0.0017878650247143658 0.0
0.0 -0.0017886313545769303 0.0
0.0 -0.0017869794922548527 0.0
0.0 -0.0017881949343339194 0.0
0.0 -0.0017882451222960608 0.0
0.0 -0.0017870962922912194 0.0
0.0 -0.0017884511514974534 0.0
0.0 -0.0017878048268352813 0.0
0.0 -0.0017873976855139228 0.0
0.0 -0.0017885042810316188 0.0
0.0 -0.0017874321138255022 0.0
0.0 -0.0017878443792627595 0.0
0.0 -0.0017882672725310683 0.0
0.0 -0.001787316512823877 0.0
0.0 -0.001788239795700457 0.0
0.0 -0.0017878219068515279 0.0
0.0 -0.001787565641454995 0.0
0.0 -0.0017883154533718934 0.0
0.0 -0.0017874677657201345 0.0
0.0 -0.0017880153072202857 0.0
0.0 -0.001787989071607456 0.0
0.0 -0.0017875223847673382 0.0
0.0 -0.0017882493263687866 0.0
0.0 -0.0017875767502100505 0.0
0.0 -0.0017879340915707292 0.0
0.0 -0.0017880057859665627 0.0
0.0 -0.0017875616371930477 0.0
0.0 -0.0017881937425884792 0.0
0.0 -0.001787605166560837 0.0
0.0 -0.0017879560972077892 0.0
0.0 -0.0017879407737026686 0.0
0.0 -0.0017876375119961496 0.0
0.0 -0.0017881471550925789 0.0
0.0 -0.0017875932483662233 0.0
0.0 -0.001788032141979739 0.0
0.0 -0.0017878209660907472 0.0
0.0 -0.0017877626037351873 0.0
0.0 -0.0017880595453061015 0.0
0.0 -0.0017876109262193703 0.0
0.0 -0.0017880963265516055 0.0
0.0 -0.001787686852404819 0.0
0.0 -0.0017879348648114843 0.0
0.0 -0.001787891634619703 0.0
0.0 -0.0017877326910611794 0.0
0.0 -0.0017880515976862168 0.0
0.0 -0.001787641400421007 0.0
0.0 -0.0017880638755665282 0.0
0.0 -0.001787703054703106 0.0
0.0 -0.0017879454328816472 0.0
0.0 -0.0017878539772828923 0.0
0.0 -0.0017877883659567035 0.0
0.0 -0.0017879933438180533 0.0
0.0 -0.0017876848567704422 0.0
0.0 -0.0017880502606758431 0.0
0.0 -0.0017876775953802881 0.0
0.0 -0.001788011616461785 0.0
0.0 -0.0017877532473328768 0.0
0.0 -0.0017879110266434683 0.0
0.0 -0.0017878655501258655 0.0
0.0 -0.0017877996810872763 0.0
0.0 -0.0017879651471996135 0.0
0.0 -0.00178771994772537 0.0
0.0 -0.001788019942790524 0.0
0.0 -0.0017876921938725116 0.0
0.0 -0.0017880211894844207 0.0
0.0 -0.0017877148357046606 0.0
0.0 -0.001787978757034477 0.0
0.0 -0.0017877721207323518 0.0
0.0 -0.0017879118526144345 0.0
0.0 -0.001787843592990777 0.0
0.0 -0.001787840354749147 0.0
0.0 -0.0017879113216756998 0.0
0.0 -0.0017877793425156638 0.0
0.0 -0.001787963554730504 0.0
0.0 -0.0017877371267490862 0.0
0.0 -0.0017879952577630439 0.0
0.0 -0.0017877158248206237 0.0
0.0 -0.0017880067542413649 0.0
0.0 -0.0017877131992476499 0.0
0.0 -0.0017880016700563338 0.0
0.0 -0.0017877247228469636 0.0
0.0 -0.0017879850088867318 0.0
0.0 -0.001787745265515381 0.0
0.0 -0.0017879617553080336 0.0
0.0 -0.0017877701852177374 0.0
0.0 -0.0017879360792184779 0.0
0.0 -0.0017877958563544665 0.0
0.0 -0.001787911036240694 0.0
0.0 -0.001787819783306734 0.0
0.0 -0.001787888597633484 0.0
0.0 -0.0017878404665598042 0.0
0.0 -0.001787869853533454 0.0
0.0 -0.0017878571589647757 0.0
0.0 -0.001787855274192032 0.0
0.0 -0.0017878696044711117 0.0
0.0 -0.0017878449586958554 0.0
0.0 -0.0017878778104296886 0.0
0.0 -0.0017878388364314197 0.0
0.0 -0.0017878818751074462 0.0
0.0 -0.001787881875107442 0.0
0.0 -0.00178783883643143 0.0
0.0 -0.0017878778104296817 0.0
0.0 -0.0017878449586958525 0.0
0.0 -0.0017878696044710915 0.0
0.0 -0.0017878552741920379 0.0
0.0 -0.0017878571589647768 0.0
0.0 -0.0017878698535334595 0.0
0.0 -0.0017878404665598083 0.0
0.0 -0.0017878885976334842 0.0
0.0 -0.0017878197833067371 0.0
0.0 -0.0017879110362406952 0.0
0.0 -0.0017877958563544563 0.0
0.0 -0.001787936079218488 0.0
0.0 -0.001787770185217753 0.0
0.0 -0.0017879617553080403 0.0
0.0 -0.001787745265515399 0.0
0.0 -0.001787985008886737 0.0
0.0 -0.0017877247228469892 0.0
0.0 -0.0017880016700563392 0.0
0.0 -0.0017877131992476488 0.0
0.0 -0.0017880067542414022 0.0
0.0 -0.001787715824820623 0.0
0.0 -0.0017879952577630471 0.0
0.0 -0.0017877371267490951 0.0
0.0 -0.0017879635547305055 0.0
0.0 -0.0017877793425156597 0.0
0.0 -0.001787911321675697 0.0
0.0 -0.0017878403547491465 0.0
0.0 -0.0017878435929907655 0.0
0.0 -0.001787911852614449 0.0
0.0 -0.0017877721207323629 0.0
0.0 -0.0017879787570344744 0.0
0.0 -0.0017877148357046625 0.0
0.0 -0.0017880211894844228 0.0
0.0 -0.0017876921938725133 0.0
0.0 -0.0017880199427905226 0.0
0.0 -0.0017877199477253653 0.0
0.0 -0.001787965147199598 0.0
0.0 -0.0017877996810872984 0.0
0.0 -0.001787865550125858 0.0
0.0 -0.0017879110266434829 0.0
0.0 -0.0017877532473328636 0.0
0.0 -0.0017880116164617887 0.0
0.0 -0.0017876775953802808 0.0
0.0 -0.001788050260675845 0.0
0.0 -0.001787684856770443 0.0
0.0 -0.0017879933438180403 0.0
0.0 -0.0017877883659567254 0.0
0.0 -0.0017878539772828756 0.0
0.0 -0.0017879454328816624 0.0
0.0 -0.0017877030547030859 0.0
0.0 -0.00178806387556654 0.0
0.0 -0.001787641400421014 0.0
0.0 -0.0017880515976862119 0.0
0.0 -0.0017877326910611933 0.0
0.0 -0.0017878916346196784 0.0
0.0 -0.001787934864811508 0.0
0.0 -0.0017876868524048155 0.0
0.0 -0.0017880963265516129 0.0
0.0 -0.0017876109262193994 0.0
0.0 -0.0017880595453060733 0.0
0.0 -0.0017877626037352263 0.0
0.0 -0.0017878209660907166 0.0
0.0 -0.0017880321419797658 0.0
0.0 -0.0017875932483662157 0.0
0.0 -0.001788147155092591 0.0
0.0 -0.0017876375119961765 0.0
0.0 -0.0017879407737026382 0.0
0.0 -0.0017879560972078432 0.0
0.0 -0.0017876051665607956 0.0
0.0 -0.0017881937425884872 0.0
0.0 -0.0017875616371930802 0.0
0.0 -0.0017880057859665116 0.0
0.0 -0.0017879340915707915 0.0
0.0 -0.001787576750210007 0.0
0.0 -0.0017882493263687838 0.0
0.0 -0.0017875223847673685 0.0
0.0 -0.001787989071607377 0.0
0.0 -0.0017880153072203635 0.0
0.0 -0.0017874677657200985 0.0
0.0 -0.0017883154533718604 0.0
0.0 -0.001787565641455055 0.0
0.0 -0.00178782190685143 0.0
0.0 -0.0017882397957005333 0.0
0.0 -0.0017873165128238675 0.0
0.0 -0.0017882672725309788 0.0
0.0 -0.001787844379262889 0.0
0.0 -0.0017874321138254044 0.0
0.0 -0.0017885042810316032 0.0
0.0 -0.001787397685514028 0.0
0.0 -0.0017878048268351197 0.0
0.0 -0.0017884511514975685 0.0
0.0 -0.0017870962922912604 0.0
0.0 -0.001788245122295887 0.0
0.0 -0.0017881949343341195 0.0
0.0 -0.0017869794922547918 0.0
0.0 -0.0017886313545767828 0.0
0.0 -0.0017878650247146266 0.0
0.0 -0.0017869757595267283 0.0
0.0 -0.001788944619605832 0.0
0.0 -0.0017875585454834406 0.0
0.0 -0.0017869693682804665 0.0
0.0 -0.0017892342208844956 0.0
0.0 -0.0017873423361082343 0.0
0.0 -0.001786827923016197 0.0
0.0 -0.0017895620717813952 0.0
0.0 -0.0017873125043136608 0.0
0.0 -0.0017863969906898446 0.0
0.0 -0.0017899180541614025 0.0
0.0 -0.001787696225651601 0.0
0.0 -0.0017855325060425241 0.0
0.0 -0.0017900325144297271 0.0
0.0 -0.0017889391214376573 0.0
0.0 -0.0017843690706694161 0.0
0.0 -0.0017890264400134185 0.0
0.0 -0.0017914370883829896 0.0
0.0 -0.0017841802406293608 0.0
0.0 -0.0017853728582685072 0.0
0.0 -0.0017938592790228106 0.0
0.0 -0.001788437694830634 0.0
0.0 -0.0017796962432641075 0.0
0.0 -0.0017896148049304141 0.0
0.0 -0.0017986177993090597 0.0
0.0 -0.0017837370258075775 0.0
0.0 -0.001772784665456078 0.0
0.0 -0.0017935009383882993 0.0
0.0 -0.001811339809551899 0.0
0.0 -0.0017847852645602122 0.0
0.0 -0.0017484039752014883 0.0
0.0 -0.001772475041285653 0.0
0.0 -0.0018479869376887123 0.0
0.0 -0.0018635066109025462 0.0
0.0 -0.0017078087919370785 0.0
0.0 -0.0013729759180832258 0.0
0.0 -0.0009541458908222199 0.0
0.0 -0.0005700944027558698 0.0
0.0 -0.0002919061287741041 0.0
0.0 -0.00012742660329498258 0.0
0.0 -4.693468616875117e-05 0.0
0.0 -1.428823808846137e-05 0.0
0.0 -3.4420774470469897e-06 0.0
0.0 -5.861268387243298e-07 0.0
0.0 -3.98792817283249e-08 0.0
0.0 1.3243904116276503e-08 0.0
0.0 5.31101582986787e-09 0.0
0.0 8.066226935763271e-10 0.0
0.0 -1.989686369809832e-11 0.0
0.0 -3.4190889072506804e-11 0.0
0.0 -5.760214794541299e-12 0.0
0.0 2.0612316908869845e-13 0.0
0.0 2.2789193094850055e-13 0.0
0.0 2.5188018592716023e-14 0.0
0.0 -4.161265767504565e-15 0.0
0.0 -1.2614190673721521e-15 0.0
0.0 8.575275276125327e-19 0.0
0.0 3.7882043841569865e-17 0.0
0.0 2.917199628139426e-18 0.0
0.0 -8.910817189646782e-19 0.0
0.0 -1.3305849597131875e-19 0.0
0.0 1.819287723032122e-20 0.0
0.0 4.3068204137504306e-21 0.0
0.0 -3.5198705544963753e-22 0.0
0.0 -1.2019073913193773e-22 0.0
0.0 7.269895413838342e-24 0.0
0.0 3.0827287860165434e-24 0.0
0.0 -1.7991107703734832e-25 0.0
0.0 -7.409537014229388e-26 0.0
0.0 5.298183587933915e-27 0.0
0.0 1.6536681587158896e-27 0.0
0.0 -1.6559835075286145e-28 0.0
0.0 -3.295637639164774e-29 0.0
0.0 4.967976264088857e-30 0.0
0.0 5.310832302479236e-31 0.0
0.0 -1.3493982170439717e-31 0.0
0.0 -4.6032371974876456e-33 0.0
0.0 3.1750053884344246e-33 0.0
0.0 -9.637764196697296e-35 0.0
0.0 -6.062588560302963e-35 0.0
0.0 6.25526876141281e-36 0.0
0.0 7.86027267406342e-37 0.0
0.0 -1.890574881885463e-37 0.0
0.0 -3.4000682962731298e-40 0.0
0.0 3.8048507700002097e-39 0.0
0.0 -3.3393801404309494e-40 0.0
0.0 -4.3386140862382483e-41 0.0
0.0 1.0660055142846954e-41 0.0
0.0 -2.316398463095378e-43 0.0
0.0 -1.7885258879954847e-43 0.0
0.0 2.336987848404068e-44 0.0
0.0 7.853072512013034e-46 0.0
0.0 -5.208024965768402e-46 0.0
0.0 4.558464628721807e-47 0.0
0.0 4.096987939828424e-48 0.0
0.0 -1.3173785862310444e-48 0.0
0.0 8.928381177299569e-50 0.0
0.0 1.21371957726799e-50 0.0
0.0 -3.1339357213931415e-51 0.0
0.0 2.056819560156537e-52 0.0
0.0 2.0568195601419307e-52 0.0
0.0 -3.1339357213839723e-51 0.0
0.0 1.213719577267657e-50 0.0
0.0 8.92838117718535e-50 0.0
0.0 -1.3173785862158985e-48 0.0
0.0 4.0969879397707276e-48 0.0
0.0 4.55846462864383e-47 0.0
0.0 -5.208024965643396e-46 0.0
0.0 7.853072511479595e-46 0.0
0.0 2.336987848360295e-44 0.0
0.0 -1.7885258879305335e-43 0.0
0.0 -2.3163984632349205e-43 0.0
0.0 1.0660055142538645e-41 0.0
0.0 -4.338614085982194e-41 0.0
0.0 -3.3393801403906413e-40 0.0
0.0 3.8048507698328075e-39 0.0
0.0 -3.400068290207485e-40 0.0
0.0 -1.890574881822593e-37 0.0
0.0 7.860272673458182e-37 0.0
0.0 6.255268761340812e-36 0.0
0.0 -6.062588559974193e-35 0.0
0.0 -9.637764197430275e-35 0.0
0.0 3.175005388295193e-33 0.0
0.0 -4.6032371967868596e-33 0.0
0.0 -1.3493982169861719e-31 0.0
0.0 5.310832301956207e-31 0.0
0.0 4.967976263897262e-30 0.0
0.0 -3.295637638834106e-29 0.0
0.0 -1.6559835074931291e-28 0.0
0.0 1.653668158539667e-27 0.0
0.0 5.2981835879907305e-27 0.0
0.0 -7.409537013381066e-26 0.0
0.0 -1.7991107704585814e-25 0.0
0.0 3.082728785629834e-24 0.0
0.0 7.269895414248637e-24 0.0
0.0 -1.201907391149501e-22 0.0
0.0 -3.5198705545775395e-22 0.0
0.0 4.3068204130363086e-21 0.0
0.0 1.8192877229824175e-20 0.0
0.0 -1.3305849594374666e-19 0.0
0.0 -8.910817188962186e-19 0.0
0.0 2.9171996272419286e-18 0.0
0.0 3.78820438368876e-17 0.0
0.0 8.575275469984741e-19 0.0
0.0 -1.2614190671495997e-15 0.0
0.0 -4.161265767411731e-15 0.0
0.0 2.5188018585710392e-14 0.0
0.0 2.2789193091728665e-13 0.0
0.0 2.0612316917029867e-13 0.0
0.0 -5.760214793217963e-12 0.0
0.0 -3.4190889068214157e-11 0.0
0.0 -1.9896863712190377e-11 0.0
0.0 8.066226933792275e-10 0.0
0.0 5.311015829037033e-09 0.0
0.0 1.3243904115856649e-08 0.0
0.0 -3.9879281711320756e-08 0.0
0.0 -5.861268385932224e-07 0.0
0.0 -3.4420774464295496e-06 0.0
0.0 -1.4288238086273549e-05 0.0
0.0 -4.6934686162540234e-05 0.0
0.0 -0.00012742660328050878 0.0
0.0 -0.00029190612874623387 0.0
0.0 -0.0005700944027118242 0.0
0.0 -0.0009541458907663139 0.0
0.0 -0.0013729759180289812 0.0
0.0 -0.0017078087919016008 0.0
0.0 -0.0018635066108941489 0.0
0.0 -0.0018479869376984998 0.0
0.0 -0.0017724750412947323 0.0
0.0 -0.0017484039751994225 0.0
0.0 -0.0017847852645535847 0.0
0.0 -0.0018113398095514499 0.0
0.0 -0.0017935009383928215 0.0
0.0 -0.0017727846654569284 0.0
0.0 -0.0017837370258042885 0.0
0.0 -0.001798617799308515 0.0
0.0 -0.0017896148049329765 0.0
0.0 -0.0017796962432641028 0.0
0.0 -0.0017884376948286043 0.0
0.0 -0.0017938592790233872 0.0
0.0 -0.0017853728582699331 0.0
0.0 -0.0017841802406283623 0.0
0.0 -0.001791437088382304 0.0
0.0 -0.0017890264400145237 0.0
0.0 -0.0017843690706693626 0.0
0.0 -0.0017889391214367814 0.0
0.0 -0.0017900325144302978 0.0
0.0 -0.0017855325060428507 0.0
0.0 -0.0017876962256509052 0.0
0.0 -0.001789918054161629 0.0
0.0 -0.0017863969906902412 0.0
0.0 -0.00178731250431315 0.0
0.0 -0.0017895620717815048 0.0
0.0 -0.0017868279230165475 0.0
0.0 -0.0017873423361078372 0.0
0.0 -0.00178923422088457 0.0
0.0 -0.0017869693682807252 0.0
0.0 -0.0017875585454831162 0.0
0.0 -0.0017889446196059386 0.0
0.0 -0.001786975759526894 0.0
0.0 -0.0017878650247143614 0.0
0.0 -0.00178863135457694 0.0
0.0 -0.0017869794922548419 0.0
0.0 -0.0017881949343339098 0.0
0.0 -0.0017882451222960612 0.0
0.0 -0.001787096292291226 0.0
0.0 -0.0017884511514974606 0.0
0.0 -0.001787804826835279 0.0
0.0 -0.001787397685513916 0.0
0.0 -0.0017885042810316027 0.0
0.0 -0.001787432113825512 0.0
0.0 -0.001787844379262762 0.0
0.0 -0.0017882672725310629 0.0
0.0 -0.0017873165128238636 0.0
0.0 -0.0017882397957004483 0.0
0.0 -0.0017878219068515292 0.0
0.0 -0.0017875656414549888 0.0
0.0 -0.0017883154533718901 0.0
0.0 -0.0017874677657201408 0.0
0.0 -0.0017880153072202755 0.0
0.0 -0.001787989071607446 0.0
0.0 -0.0017875223847673334 0.0
0.0 -0.0017882493263687725 0.0
0.0 -0.00178757675021005 0.0
0.0 -0.0017879340915707286 0.0
0.0 -0.0017880057859665627 0.0
0.0 -0.001787561637193052 0.0
0.0 -0.0017881937425884877 0.0
0.0 -0.00178760516656083 0.0
0.0 -0.0017879560972077855 0.0
0.0 -0.0017879407737026707 0.0
0.0 -0.0017876375119961407 0.0
0.0 -0.0017881471550925915 0.0
0.0 -0.0017875932483662172 0.0
0.0 -0.001788032141979733 0.0
0.0 -0.0017878209660907485 0.0
0.0 -0.0017877626037351819 0.0
0.0 -0.001788059545306088 0.0
0.0 -0.0017876109262193998 0.0
0.0 -0.0017880963265516092 0.0
0.0 -0.001787686852404836 0.0
0.0 -0.0017879348648114958 0.0
0.0 -0.0017878916346196969 0.0
0.0 -0.0017877326910611612 0.0
0.0 -0.0017880515976862001 0.0
0.0 -0.0017876414004210051 0.0
0.0 -0.0017880638755665274 0.0
0.0 -0.0017877030547030993 0.0
0.0 -0.0017879454328816444 0.0
0.0 -0.001787853977282893 0.0
0.0 -0.0017877883659567024 0.0
0.0 -0.0017879933438180473 0.0
0.0 -0.0017876848567704492 0.0
0.0 -0.00178805026067585 0.0
0.0 -0.0017876775953802847 0.0
0.0 -0.00178801161646179 0.0
0.0 -0.0017877532473328868 0.0
0.0 -0.0017879110266434824 0.0
0.0 -0.001787865550125861 0.0
0.0 -0.0017877996810872845 0.0
0.0 -0.0017879651471995983 0.0
0.0 -0.00178771994772537 0.0
0.0 -0.0017880199427905371 0.0
0.0 -0.0017876921938725023 0.0
0.0 -0.0017880211894844198 0.0
0.0 -0.0017877148357046497 0.0
0.0 -0.0017879787570344613 0.0
0.0 -0.0017877721207323672 0.0
0.0 -0.0017879118526144394 0.0
0.0 -0.0017878435929907694 0.0
0.0 -0.0017878403547491406 0.0
0.0 -0.001787911321675704 0.0
0.0 -0.0017877793425156434 0.0
0.0 -0.0017879635547305044 0.0
0.0 -0.0017877371267490882 0.0
0.0 -0.0017879952577630482 0.0
0.0 -0.001787715824820612 0.0
0.0 -0.0017880067542413954 0.0
0.0 -0.001787713199247641 0.0
0.0 -0.0017880016700563405 0.0
0.0 -0.0017877247228469742 0.0
0.0 -0.001787985008886724 0.0
0.0 -0.0017877452655153977 0.0
0.0 -0.0017879617553080416 0.0
0.0 -0.0017877701852177473 0.0
0.0 -0.0017879360792184666 0.0
0.0 -0.001787795856354456 0.0
0.0 -0.0017879110362406935 0.0
0.0 -0.0017878197833067432 0.0
0.0 -0.0017878885976334892 0.0
0.0 -0.0017878404665598127 0.0
0.0 -0.001787869853533459 0.0
0.0 -0.0017878571589647792 0.0
0.0 -0.0017878552741920448 0.0
0.0 -0.0017878696044710998 0.0
0.0 -0.0017878449586958493 0.0
0.0 -0.0017878778104296745 0.0
0.0 -0.0017878388364314197 0.0
0.0 -0.0017878818751074347 0.0
0.0 -0.0017878818751074304 0.0
0.0 -0.00178783883643143 0.0
0.0 -0.0017878778104296945 0.0
0.0 -0.0017878449586958575 0.0
0.0 -0.001787869604471098 0.0
0.0 -0.001787855274192035 0.0
0.0 -0.0017878571589647631 0.0
0.0 -0.0017878698535334547 0.0
0.0 -0.0017878404665598079 0.0
0.0 -0.00178788859763349 0.0
0.0 -0.0017878197833067456 0.0
0.0 -0.0017879110362406935 0.0
0.0 -0.0017877958563544626 0.0
0.0 -0.0017879360792184792 0.0
0.0 -0.001787770185217736 0.0
0.0 -0.0017879617553080345 0.0
0.0 -0.0017877452655153845 0.0
0.0 -0.001787985008886732 0.0
0.0 -0.0017877247228469696 0.0
0.0 -0.001788001670056348 0.0
0.0 -0.0017877131992476488 0.0
0.0 -0.0017880067542413833 0.0
0.0 -0.0017877158248206287 0.0
0.0 -0.0017879952577630465 0.0
0.0 -0.0017877371267490847 0.0
0.0 -0.0017879635547305053 0.0
0.0 -0.0017877793425156636 0.0
0.0 -0.0017879113216756936 0.0
0.0 -0.0017878403547491417 0.0
0.0 -0.0017878435929907543 0.0
0.0 -0.0017879118526144338 0.0
0.0 -0.0017877721207323549 0.0
0.0 -0.001787978757034472 0.0
0.0 -0.0017877148357046562 0.0
0.0 -0.001788021189484419 0.0
0.0 -0.0017876921938725053 0.0
0.0 -0.0017880199427905185 0.0
0.0 -0.0017877199477253686 0.0
0.0 -0.0017879651471996005 0.0
0.0 -0.0017877996810872895 0.0
0.0 -0.0017878655501258568 0.0
0.0 -0.0017879110266434792 0.0
0.0 -0.0017877532473328617 0.0
0.0 -0.001788011616461798 0.0
0.0 -0.0017876775953802812 0.0