# vtk DataFile Version 2.0
data_977
ASCII
DATASET UNSTRUCTURED_GRID
POINTS 804 float
0.0 0.0 0.0
0.1 0.0 0.0
0.1 20.0 0.0
0.0 20.0 0.0
0.0 0.0 -0.1
0.1 0.0 -0.1
0.1 20.0 -0.1
0.0 20.0 -0.1
0.1 0.09999999999992462 0.0
0.1 0.1999999999998517 0.0
0.1 0.2999999999997818 0.0
0.1 0.399999999999712 0.0
0.1 0.4999999999996377 0.0
0.1 0.5999999999995541 0.0
0.1 0.6999999999994495 0.0
0.1 0.7999999999993355 0.0
0.1 0.8999999999992101 0.0
0.1 0.999999999999102 0.0
0.1 1.099999999999006 0.0
0.1 1.199999999998936 0.0
0.1 1.299999999998867 0.0
0.1 1.399999999998797 0.0
0.1 1.499999999998727 0.0
0.1 1.599999999998657 0.0
0.1 1.699999999998587 0.0
0.1 1.799999999998517 0.0
0.1 1.899999999998447 0.0
0.1 1.999999999998378 0.0
0.1 2.099999999998308 0.0
0.1 2.199999999998238 0.0
0.1 2.299999999998168 0.0
0.1 2.399999999998067 0.0
0.1 2.499999999997942 0.0
0.1 2.599999999997706 0.0
0.1 2.699999999997444 0.0
0.1 2.799999999997153 0.0
0.1 2.899999999996861 0.0
0.1 2.999999999996569 0.0
0.1 3.099999999996277 0.0
0.1 3.199999999995984 0.0
0.1 3.299999999995693 0.0
0.1 3.399999999995401 0.0
0.1 3.499999999995108 0.0
0.1 3.599999999994816 0.0
0.1 3.699999999994525 0.0
0.1 3.799999999994232 0.0
0.1 3.89999999999394 0.0
0.1 3.999999999993648 0.0
0.1 4.099999999993356 0.0
0.1 4.199999999993064 0.0
0.1 4.299999999992772 0.0
0.1 4.399999999992479 0.0
0.1 4.499999999992188 0.0
0.1 4.599999999991895 0.0
0.1 4.699999999991603 0.0
0.1 4.799999999991311 0.0
0.1 4.899999999991019 0.0
0.1 4.999999999990727 0.0
0.1 5.099999999990436 0.0
0.1 5.199999999990144 0.0
0.1 5.299999999989851 0.0
0.1 5.399999999989559 0.0
0.1 5.499999999989267 0.0
0.1 5.599999999988975 0.0
0.1 5.699999999988683 0.0
0.1 5.799999999988391 0.0
0.1 5.899999999988099 0.0
0.1 5.999999999987806 0.0
0.1 6.099999999987515 0.0
0.1 6.199999999987222 0.0
0.1 6.299999999986929 0.0
0.1 6.399999999986638 0.0
0.1 6.499999999986345 0.0
0.1 6.599999999986054 0.0
0.1 6.699999999985762 0.0
0.1 6.79999999998547 0.0
0.1 6.899999999985177 0.0
0.1 6.999999999984885 0.0
0.1 7.099999999984593 0.0
0.1 7.199999999984302 0.0
0.1 7.299999999984009 0.0
0.1 7.399999999983717 0.0
0.1 7.499999999983426 0.0
0.1 7.599999999983132 0.0
0.1 7.699999999982841 0.0
0.1 7.799999999982549 0.0
0.1 7.899999999982256 0.0
0.1 7.999999999982034 0.0
0.1 8.099999999981964 0.0
0.1 8.199999999982062 0.0
0.1 8.299999999982214 0.0
0.1 8.399999999982366 0.0
0.1 8.499999999982517 0.0
0.1 8.59999999998267 0.0
0.1 8.699999999982822 0.0
0.1 8.799999999982973 0.0
0.1 8.899999999983125 0.0
0.1 8.999999999983277 0.0
0.1 9.09999999998343 0.0
0.1 9.19999999998358 0.0
0.1 9.299999999983733 0.0
0.1 9.399999999983885 0.0
0.1 9.499999999984038 0.0
0.1 9.599999999984188 0.0
0.1 9.69999999998434 0.0
0.1 9.799999999984493 0.0
0.1 9.899999999984646 0.0
0.1 9.999999999984798 0.0
0.1 10.09999999998495 0.0
0.1 10.1999999999851 0.0
0.1 10.29999999998525 0.0
0.1 10.39999999998541 0.0
0.1 10.49999999998556 0.0
0.1 10.59999999998571 0.0
0.1 10.69999999998586 0.0
0.1 10.79999999998601 0.0
0.1 10.89999999998616 0.0
0.1 10.99999999998632 0.0
0.1 11.09999999998647 0.0
0.1 11.19999999998662 0.0
0.1 11.29999999998677 0.0
0.1 11.39999999998693 0.0
0.1 11.49999999998708 0.0
0.1 11.59999999998723 0.0
0.1 11.69999999998738 0.0
0.1 11.79999999998754 0.0
0.1 11.89999999998769 0.0
0.1 11.99999999998784 0.0
0.1 12.09999999998799 0.0
0.1 12.19999999998814 0.0
0.1 12.2999999999883 0.0
0.1 12.39999999998845 0.0
0.1 12.4999999999886 0.0
0.1 12.59999999998875 0.0
0.1 12.6999999999889 0.0
0.1 12.79999999998905 0.0
0.1 12.89999999998921 0.0
0.1 12.99999999998936 0.0
0.1 13.09999999998951 0.0
0.1 13.19999999998966 0.0
0.1 13.29999999998982 0.0
0.1 13.39999999998997 0.0
0.1 13.49999999999012 0.0
0.1 13.59999999999027 0.0
0.1 13.69999999999042 0.0
0.1 13.79999999999057 0.0
0.1 13.89999999999073 0.0
0.1 13.99999999999088 0.0
0.1 14.09999999999103 0.0
0.1 14.19999999999118 0.0
0.1 14.29999999999134 0.0
0.1 14.39999999999149 0.0
0.1 14.49999999999164 0.0
0.1 14.59999999999179 0.0
0.1 14.69999999999194 0.0
0.1 14.7999999999921 0.0
0.1 14.89999999999225 0.0
0.1 14.9999999999924 0.0
0.1 15.09999999999255 0.0
0.1 15.1999999999927 0.0
0.1 15.29999999999285 0.0
0.1 15.39999999999301 0.0
0.1 15.49999999999316 0.0
0.1 15.59999999999331 0.0
0.1 15.69999999999346 0.0
0.1 15.79999999999362 0.0
0.1 15.89999999999377 0.0
0.1 15.99999999999392 0.0
0.1 16.09999999999407 0.0
0.1 16.19999999999422 0.0
0.1 16.29999999999437 0.0
0.1 16.39999999999453 0.0
0.1 16.49999999999468 0.0
0.1 16.59999999999483 0.0
0.1 16.69999999999498 0.0
0.1 16.79999999999514 0.0
0.1 16.89999999999528 0.0
0.1 16.99999999999544 0.0
0.1 17.09999999999559 0.0
0.1 17.19999999999574 0.0
0.1 17.29999999999589 0.0
0.1 17.39999999999605 0.0
0.1 17.4999999999962 0.0
0.1 17.59999999999635 0.0
0.1 17.6999999999965 0.0
0.1 17.79999999999665 0.0
0.1 17.89999999999681 0.0
0.1 17.99999999999696 0.0
0.1 18.09999999999711 0.0
0.1 18.19999999999726 0.0
0.1 18.29999999999742 0.0
0.1 18.39999999999757 0.0
0.1 18.49999999999772 0.0
0.1 18.59999999999787 0.0
0.1 18.69999999999802 0.0
0.1 18.79999999999818 0.0
0.1 18.89999999999833 0.0
0.1 18.99999999999848 0.0
0.1 19.09999999999863 0.0
0.1 19.19999999999878 0.0
0.1 19.29999999999894 0.0
0.1 19.39999999999909 0.0
0.1 19.49999999999924 0.0
0.1 19.59999999999939 0.0
0.1 19.69999999999955 0.0
0.1 19.7999999999997 0.0
0.1 19.89999999999985 0.0
0.0 19.9 0.0
0.0 19.8 0.0
0.0 19.7 0.0
0.0 19.6 0.0
0.0 19.5 0.0
0.0 19.4 0.0
0.0 19.3 0.0
0.0 19.2 0.0
0.0 19.1 0.0
0.0 19.0 0.0
0.0 18.9 0.0
0.0 18.8 0.0
0.0 18.7 0.0
0.0 18.6 0.0
0.0 18.5 0.0
0.0 18.4 0.0
0.0 18.3 0.0
0.0 18.2 0.0
0.0 18.1 0.0
0.0 18.0 0.0
0.0 17.9 0.0
0.0 17.8 0.0
0.0 17.7 0.0
0.0 17.6 0.0
0.0 17.5 0.0
0.0 17.4 0.0
0.0 17.3 0.0
0.0 17.2 0.0
0.0 17.09999999999999 0.0
0.0 17.0 0.0
0.0 16.9 0.0
0.0 16.8 0.0
0.0 16.7 0.0
0.0 16.59999999999999 0.0
0.0 16.49999999999999 0.0
0.0 16.4 0.0
0.0 16.29999999999999 0.0
0.0 16.2 0.0
0.0 16.09999999999999 0.0
0.0 15.99999999999999 0.0
0.0 15.89999999999999 0.0
0.0 15.79999999999999 0.0
0.0 15.69999999999999 0.0
0.0 15.59999999999999 0.0
0.0 15.49999999999999 0.0
0.0 15.39999999999999 0.0
0.0 15.29999999999999 0.0
0.0 15.19999999999999 0.0
0.0 15.09999999999999 0.0
0.0 14.99999999999999 0.0
0.0 14.89999999999999 0.0
0.0 14.79999999999999 0.0
0.0 14.69999999999999 0.0
0.0 14.59999999999999 0.0
0.0 14.49999999999999 0.0
0.0 14.39999999999999 0.0
0.0 14.29999999999999 0.0
0.0 14.19999999999999 0.0
0.0 14.09999999999999 0.0
0.0 13.99999999999999 0.0
0.0 13.89999999999999 0.0
0.0 13.79999999999999 0.0
0.0 13.69999999999999 0.0
0.0 13.59999999999999 0.0
0.0 13.49999999999999 0.0
0.0 13.39999999999999 0.0
0.0 13.29999999999999 0.0
0.0 13.19999999999999 0.0
0.0 13.09999999999999 0.0
0.0 12.99999999999999 0.0
0.0 12.89999999999999 0.0
0.0 12.79999999999999 0.0
0.0 12.69999999999999 0.0
0.0 12.59999999999999 0.0
0.0 12.49999999999999 0.0
0.0 12.39999999999999 0.0
0.0 12.29999999999999 0.0
0.0 12.19999999999999 0.0
0.0 12.09999999999999 0.0
0.0 11.99999999999999 0.0
0.0 11.89999999999999 0.0
0.0 11.79999999999999 0.0
0.0 11.69999999999999 0.0
0.0 11.59999999999999 0.0
0.0 11.49999999999999 0.0
0.0 11.39999999999999 0.0
0.0 11.29999999999999 0.0
0.0 11.19999999999999 0.0
0.0 11.09999999999999 0.0
0.0 10.99999999999999 0.0
0.0 10.89999999999999 0.0
0.0 10.79999999999999 0.0
0.0 10.69999999999999 0.0
0.0 10.59999999999999 0.0
0.0 10.49999999999999 0.0
0.0 10.39999999999999 0.0
0.0 10.29999999999999 0.0
0.0 10.19999999999999 0.0
0.0 10.09999999999999 0.0
0.0 9.999999999999993 0.0
0.0 9.899999999999993 0.0
0.0 9.799999999999994 0.0
0.0 9.699999999999992 0.0
0.0 9.599999999999993 0.0
0.0 9.499999999999993 0.0
0.0 9.399999999999993 0.0
0.0 9.299999999999995 0.0
0.0 9.199999999999996 0.0
0.0 9.099999999999994 0.0
0.0 8.999999999999995 0.0
0.0 8.899999999999995 0.0
0.0 8.799999999999994 0.0
0.0 8.699999999999994 0.0
0.0 8.599999999999994 0.0
0.0 8.499999999999995 0.0
0.0 8.399999999999995 0.0
0.0 8.299999999999994 0.0
0.0 8.199999999999994 0.0
0.0 8.099999999999994 0.0
0.0 7.999999999999993 0.0
0.0 7.899999999999995 0.0
0.0 7.799999999999995 0.0
0.0 7.699999999999996 0.0
0.0 7.599999999999996 0.0
0.0 7.499999999999996 0.0
0.0 7.399999999999995 0.0
0.0 7.299999999999995 0.0
0.0 7.199999999999996 0.0
0.0 7.099999999999994 0.0
0.0 6.999999999999995 0.0
0.0 6.899999999999995 0.0
0.0 6.799999999999995 0.0
0.0 6.699999999999996 0.0
0.0 6.599999999999994 0.0
0.0 6.499999999999995 0.0
0.0 6.399999999999997 0.0
0.0 6.299999999999997 0.0
0.0 6.199999999999996 0.0
0.0 6.099999999999996 0.0
0.0 5.999999999999996 0.0
0.0 5.899999999999997 0.0
0.0 5.799999999999997 0.0
0.0 5.699999999999996 0.0
0.0 5.599999999999996 0.0
0.0 5.499999999999996 0.0
0.0 5.399999999999995 0.0
0.0 5.299999999999995 0.0
0.0 5.199999999999996 0.0
0.0 5.099999999999996 0.0
0.0 4.999999999999998 0.0
0.0 4.899999999999999 0.0
0.0 4.799999999999997 0.0
0.0 4.699999999999998 0.0
0.0 4.599999999999998 0.0
0.0 4.499999999999996 0.0
0.0 4.399999999999997 0.0
0.0 4.299999999999997 0.0
0.0 4.199999999999998 0.0
0.0 4.099999999999998 0.0
0.0 3.999999999999996 0.0
0.0 3.899999999999999 0.0
0.0 3.799999999999997 0.0
0.0 3.699999999999996 0.0
0.0 3.599999999999998 0.0
0.0 3.5 0.0
0.0 3.399999999999999 0.0
0.0 3.299999999999997 0.0
0.0 3.199999999999999 0.0
0.0 3.099999999999998 0.0
0.0 3.0 0.0
0.0 2.899999999999999 0.0
0.0 2.799999999999997 0.0
0.0 2.699999999999999 0.0
0.0 2.599999999999998 0.0
0.0 2.499999999999996 0.0
0.0 2.399999999999999 0.0
0.0 2.299999999999997 0.0
0.0 2.199999999999999 0.0
0.0 2.100000000000001 0.0
0.0 2.0 0.0
0.0 1.899999999999999 0.0
0.0 1.800000000000001 0.0
0.0 1.699999999999999 0.0
0.0 1.599999999999998 0.0
0.0 1.5 0.0
0.0 1.399999999999999 0.0
0.0 1.299999999999997 0.0
0.0 1.199999999999999 0.0
0.0 1.099999999999998 0.0
0.0 1.0 0.0
0.0 0.8999999999999986 0.0
0.0 0.8000000000000007 0.0
0.0 0.6999999999999993 0.0
0.0 0.6000000000000014 0.0
0.0 0.5 0.0
0.0 0.3999999999999986 0.0
0.0 0.3000000000000007 0.0
0.0 0.1999999999999993 0.0
[...]
POINT_DATA 804
VECTORS displacement double
0.0 0.0 0.0
0.0 0.0 0.0
0.0 0.0017835612308424397 0.0
0.0 0.001783561230842417 0.0
0.0 0.0 0.0
0.0 0.0 0.0
0.0 0.0017835612308424206 0.0
0.0 0.0017835612308424438 0.0
0.0 1.4268446987645959e-11 0.0
0.0 2.1673499855598036e-11 0.0
0.0 3.487975560751289e-11 0.0
0.0 5.0318008600560545e-11 0.0
0.0 5.7709185045904196e-11 0.0
0.0 6.947172263756072e-11 0.0
0.0 8.637615088896749e-11 0.0
0.0 9.421638657010492e-11 0.0
0.0 1.0370666579761028e-10 0.0
0.0 1.2201061953418515e-10 0.0
0.0 1.3153461918492279e-10 0.0
0.0 1.3792647682849634e-10 0.0
0.0 1.5657624070478628e-10 0.0
0.0 1.6963442688877002e-10 0.0
0.0 1.7298057869796799e-10 0.0
0.0 1.8955794861791027e-10 0.0
0.0 2.0775918013239802e-10 0.0
0.0 2.1002494024092116e-10 0.0
0.0 2.2117563041093312e-10 0.0
0.0 2.4428555477756626e-10 0.0
0.0 2.4981343084461594e-10 0.0
0.0 2.5303568708478336e-10 0.0
0.0 2.7723840292220874e-10 0.0
0.0 2.9151427267827155e-10 0.0
0.0 2.8817214654236727e-10 0.0
0.0 3.0585561427706066e-10 0.0
0.0 3.3169863598269984e-10 0.0
0.0 3.295617848314479e-10 0.0
0.0 3.3281242474823017e-10 0.0
0.0 3.65047181161207e-10 0.0
0.0 3.7673797407489755e-10 0.0
0.0 3.6516254689695745e-10 0.0
0.0 3.8839162477215924e-10 0.0
0.0 4.2233066743066185e-10 0.0
0.0 4.1074617790804813e-10 0.0
0.0 4.0723089810405393e-10 0.0
0.0 4.535922551918508e-10 0.0
0.0 4.68634995253983e-10 0.0
0.0 4.3835557678976734e-10 0.0
0.0 4.640306766556023e-10 0.0
0.0 5.201485213331803e-10 0.0
0.0 4.982382060437845e-10 0.0
0.0 4.707189696139988e-10 0.0
0.0 5.370508025762663e-10 0.0
0.0 5.76128379489452e-10 0.0
0.0 5.142635864683756e-10 0.0
0.0 5.180206066113557e-10 0.0
0.0 6.199837471181211e-10 0.0
0.0 6.145619269317561e-10 0.0
0.0 5.23822121563513e-10 0.0
0.0 5.843141435464269e-10 0.0
0.0 7.067781839397602e-10 0.0
0.0 6.329154205300302e-10 0.0
0.0 5.313249233481653e-10 0.0
0.0 6.717586769633016e-10 0.0
0.0 7.945582047880597e-10 0.0
0.0 6.291898663320981e-10 0.0
0.0 5.376731100913045e-10 0.0
0.0 7.820454527688534e-10 0.0
0.0 8.859267345478602e-10 0.0
0.0 6.015245100435254e-10 0.0
0.0 5.347035576890579e-10 0.0
0.0 9.184411163748854e-10 0.0
0.0 9.96406601761686e-10 0.0
0.0 5.443315779572655e-10 0.0
0.0 4.977770645368451e-10 0.0
0.0 1.0880646996183894e-09 0.0
0.0 1.1627762088024923e-09 0.0
0.0 4.521605531736833e-10 0.0
0.0 3.725172639752113e-10 0.0
0.0 1.2886601775294183e-09 0.0
0.0 1.4647469774106808e-09 0.0
0.0 3.4555342153923066e-10 0.0
0.0 4.5523908485846325e-11 0.0
0.0 1.4621119627355257e-09 0.0
0.0 2.0552999922727952e-09 0.0
0.0 3.544875132872654e-10 0.0
0.0 -6.731028357099705e-10 0.0
0.0 1.350654915511588e-09 0.0
0.0 3.136348231591518e-09 0.0
0.0 9.460687527680088e-10 0.0
0.0 -1.9223535163924772e-09 0.0
0.0 1.7631855657531853e-10 0.0
0.0 4.611451417988036e-09 0.0
0.0 3.2977391619351835e-09 0.0
0.0 -3.0335974600144817e-09 0.0
0.0 -3.6174922361895314e-09 0.0
0.0 4.6742488555495375e-09 0.0
0.0 9.000236702497942e-09 0.0
0.0 -2.815889955451481e-10 0.0
0.0 -1.0592701215571033e-08 0.0
0.0 -3.0358270235580436e-09 0.0
0.0 1.525753019455979e-08 0.0
0.0 1.5067923652591702e-08 0.0
0.0 -1.0618050198367538e-08 0.0
0.0 -2.6347669958592433e-08 0.0
0.0 -1.8476025958156406e-10 0.0
0.0 4.0338671582534666e-08 0.0
0.0 3.191450494766065e-08 0.0
0.0 -3.335338551155983e-08 0.0
0.0 -7.277740986825606e-08 0.0
0.0 -8.904153632557519e-09 0.0
0.0 1.0564858339424929e-07 0.0
0.0 1.1349392322184485e-07 0.0
0.0 -5.404829698589084e-08 0.0
0.0 -2.3322639737373853e-07 0.0
0.0 -1.5771641110834196e-07 0.0
0.0 2.092441901916657e-07 0.0
0.0 5.067438464214406e-07 0.0
0.0 2.615503261968511e-07 0.0
0.0 -5.412635020459677e-07 0.0
0.0 -1.1782064570860533e-06 0.0
0.0 -6.614025130515974e-07 0.0
0.0 1.2193761385692116e-06 0.0
0.0 3.1435302220537567e-06 0.0
0.0 2.719876383375856e-06 0.0
0.0 -1.6290737106244754e-06 0.0
0.0 -8.19284041029908e-06 0.0
0.0 -1.037304443378611e-05 0.0
0.0 2.8390607876225965e-06 0.0
0.0 4.4128651999971863e-05 0.0
0.0 0.00012385746376367593 0.0
0.0 0.0002464321188729298 0.0
0.0 0.00040848415871133875 0.0
0.0 0.0005994634331627359 0.0
0.0 0.0008042451542865554 0.0
0.0 0.0010066705779181978 0.0
0.0 0.0011928106124931082 0.0
0.0 0.001353088247249387 0.0
0.0 0.0014829608518013252 0.0
0.0 0.0015823725918580971 0.0
0.0 0.0016544736274932584 0.0
0.0 0.0017041406151009576 0.0
0.0 0.0017366975837004126 0.0
0.0 0.0017570363966291165 0.0
0.0 0.0017691597953420131 0.0
0.0 0.0017760610327317127 0.0
0.0 0.0017798151482933868 0.0
0.0 0.0017817674005247497 0.0
0.0 0.0017827380886668962 0.0
0.0 0.0017831995170601996 0.0
0.0 0.0017834091535881681 0.0
0.0 0.0017835001252706965 0.0
0.0 0.0017835377979032092 0.0
0.0 0.001783552666485646 0.0
0.0 0.0017835582497247448 0.0
0.0 0.0017835602399302712 0.0
0.0 0.0017835609114240122 0.0
0.0 0.001783561125185476 0.0
0.0 0.0017835611892585332 0.0
0.0 0.0017835612074341871 0.0
0.0 0.001783561212561576 0.0
0.0 0.0017835612142495841 0.0
0.0 0.0017835612151201846 0.0
0.0 0.001783561215831474 0.0
0.0 0.0017835612164809596 0.0
0.0 0.001783561217130942 0.0
0.0 0.0017835612177624616 0.0
0.0 0.0017835612183705713 0.0
0.0 0.0017835612189808264 0.0
0.0 0.0017835612195601144 0.0
0.0 0.0017835612201326464 0.0
0.0 0.0017835612206931644 0.0
0.0 0.0017835612212276904 0.0
0.0 0.0017835612217606146 0.0
0.0 0.0017835612222699981 0.0
0.0 0.0017835612227650034 0.0
0.0 0.0017835612232522708 0.0
0.0 0.0017835612237143417 0.0
0.0 0.0017835612241696777 0.0
0.0 0.0017835612246082412 0.0
0.0 0.001783561225027216 0.0
0.0 0.0017835612254398893 0.0
0.0 0.0017835612258301412 0.0
0.0 0.0017835612262081025 0.0
0.0 0.0017835612265751138 0.0
0.0 0.0017835612269188202 0.0
0.0 0.0017835612272566294 0.0
0.0 0.0017835612275745954 0.0
0.0 0.0017835612278763028 0.0
0.0 0.001783561228170492 0.0
0.0 0.0017835612284400205 0.0
0.0 0.0017835612287024102 0.0
0.0 0.0017835612289481243 0.0
0.0 0.0017835612291737882 0.0
0.0 0.0017835612293948641 0.0
0.0 0.0017835612295900858 0.0
0.0 0.0017835612297775886 0.0
0.0 0.0017835612299501203 0.0
0.0 0.0017835612301008508 0.0
0.0 0.0017835612302478526 0.0
0.0 0.0017835612303695185 0.0
0.0 0.0017835612304817115 0.0
0.0 0.001783561230581262 0.0
0.0 0.0017835612306568928 0.0
0.0 0.0017835612307300903 0.0
0.0 0.0017835612307776963 0.0
0.0 0.0017835612308152661 0.0
0.0 0.0017835612308410138 0.0
0.0 0.0017835612308410194 0.0
0.0 0.0017835612308152718 0.0
0.0 0.0017835612307776825 0.0
0.0 0.0017835612307300914 0.0
0.0 0.0017835612306568913 0.0
0.0 0.0017835612305812623 0.0
0.0 0.0017835612304817083 0.0
0.0 0.001783561230369505 0.0
0.0 0.0017835612302478491 0.0
0.0 0.001783561230100846 0.0
0.0 0.0017835612299501285 0.0
0.0 0.0017835612297776022 0.0
0.0 0.001783561229590102 0.0
0.0 0.00178356122939488 0.0
0.0 0.0017835612291737923 0.0
0.0 0.0017835612289481223 0.0
0.0 0.0017835612287024055 0.0
0.0 0.0017835612284400194 0.0
0.0 0.001783561228170492 0.0
0.0 0.0017835612278763132 0.0
0.0 0.0017835612275746034 0.0
0.0 0.0017835612272566412 0.0
0.0 0.0017835612269188092 0.0
0.0 0.0017835612265751234 0.0
0.0 0.0017835612262080852 0.0
0.0 0.0017835612258301405 0.0
0.0 0.0017835612254398833 0.0
0.0 0.0017835612250272212 0.0
0.0 0.001783561224608241 0.0
0.0 0.0017835612241696764 0.0
0.0 0.0017835612237143438 0.0
0.0 0.0017835612232522753 0.0
0.0 0.0017835612227650028 0.0
0.0 0.0017835612222699923 0.0
0.0 0.0017835612217606015 0.0
0.0 0.0017835612212276871 0.0
0.0 0.0017835612206931607 0.0
0.0 0.0017835612201326356 0.0
0.0 0.0017835612195601222 0.0
0.0 0.001783561218980838 0.0
0.0 0.001783561218370574 0.0
0.0 0.0017835612177624558 0.0
0.0 0.001783561217130937 0.0
0.0 0.0017835612164809388 0.0
0.0 0.0017835612158314728 0.0
0.0 0.001783561215120187 0.0
0.0 0.0017835612142495802 0.0
0.0 0.0017835612125615713 0.0
0.0 0.0017835612074341926 0.0
0.0 0.0017835611892585512 0.0
0.0 0.0017835611251854795 0.0
0.0 0.0017835609114239966 0.0
0.0 0.0017835602399302725 0.0
0.0 0.0017835582497247517 0.0
0.0 0.0017835526664856571 0.0
0.0 0.0017835377979032114 0.0
0.0 0.0017835001252706876 0.0
0.0 0.0017834091535881788 0.0
0.0 0.001783199517060228 0.0
0.0 0.0017827380886669699 0.0
0.0 0.0017817674005248662 0.0
0.0 0.0017798151482936392 0.0
0.0 0.0017760610327321967 0.0
0.0 0.001769159795342894 0.0
0.0 0.0017570363966306465 0.0
0.0 0.001736697583702986 0.0
0.0 0.001704140615105046 0.0
0.0 0.0016544736274994502 0.0
0.0 0.001582372591867007 0.0
0.0 0.0014829608518134598 0.0
0.0 0.0013530882472650584 0.0
0.0 0.0011928106125121823 0.0
0.0 0.0010066705779399746 0.0
0.0 0.000804245154309731 0.0
0.0 0.0005994634331856014 0.0
0.0 0.0004084841587319572 0.0
0.0 0.00024643211888971295 0.0
0.0 0.00012385746377564685 0.0
0.0 4.412865200707761e-05 0.0
0.0 2.839060790678314e-06 0.0
0.0 -1.0373044433349243e-05 0.0
0.0 -8.192840411041957e-06 0.0
0.0 -1.6290737114095445e-06 0.0
0.0 2.719876383080339e-06 0.0
0.0 3.1435302222064586e-06 0.0
0.0 1.2193761388589807e-06 0.0
0.0 -6.61402512892925e-07 0.0
0.0 -1.1782064571180425e-06 0.0
0.0 -5.412635021739351e-07 0.0
0.0 2.615503261161326e-07 0.0
0.0 5.067438464342455e-07 0.0
0.0 2.09244190250034e-07 0.0
0.0 -1.5771641107392675e-07 0.0
0.0 -2.3322639739007112e-07 0.0
0.0 -5.4048297017752633e-08 0.0
0.0 1.1349392320890454e-07 0.0
0.0 1.056485834012767e-07 0.0
0.0 -8.90415361419967e-09 0.0
0.0 -7.277740985635639e-08 0.0
0.0 -3.335338552422361e-08 0.0
0.0 3.191450493192921e-08 0.0
0.0 4.0338671583508794e-08 0.0
0.0 -1.8476025594515998e-10 0.0
0.0 -2.6347669959243878e-08 0.0
0.0 -1.0618050206569001e-08 0.0
0.0 1.506792364631431e-08 0.0
0.0 1.525753020017664e-08 0.0
0.0 -3.0358270189792366e-09 0.0
0.0 -1.059270121186885e-08 0.0
0.0 -2.8158899886723695e-10 0.0
0.0 9.000236693936363e-09 0.0
0.0 4.674248855454853e-09 0.0
0.0 -3.6174922346315024e-09 0.0
0.0 -3.0335974614496074e-09 0.0
0.0 3.297739164048181e-09 0.0
0.0 4.611451418822022e-09 0.0
0.0 1.7631855736950148e-10 0.0
0.0 -1.9223535157223253e-09 0.0
0.0 9.460687576813065e-10 0.0
0.0 3.136348234066371e-09 0.0
0.0 1.3506549177814392e-09 0.0
0.0 -6.731028372061265e-10 0.0
0.0 3.544875098705626e-10 0.0
0.0 2.055299988861501e-09 0.0
0.0 1.4621119622679324e-09 0.0
0.0 4.5523911667018035e-11 0.0
0.0 3.455534230839989e-10 0.0
0.0 1.4647469770152971e-09 0.0
0.0 1.288660176326313e-09 0.0
0.0 3.725172649296204e-10 0.0
0.0 4.5216055208015274e-10 0.0
0.0 1.1627762090649905e-09 0.0
0.0 1.0880646985200495e-09 0.0
0.0 4.97777063644957e-10 0.0
0.0 5.443315789651274e-10 0.0
0.0 9.964066007241729e-10 0.0
0.0 9.184411157830274e-10 0.0
0.0 5.347035577330215e-10 0.0
0.0 6.015245096886588e-10 0.0
0.0 8.859267362261961e-10 0.0
0.0 7.82045453190293e-10 0.0
0.0 5.376731121503209e-10 0.0
0.0 6.291898674226183e-10 0.0
0.0 7.945582027514718e-10 0.0
0.0 6.717586767978073e-10 0.0
0.0 5.313249236629496e-10 0.0
0.0 6.329154195500969e-10 0.0
0.0 7.067781820514806e-10 0.0
0.0 5.843141447434953e-10 0.0
0.0 5.238221207876091e-10 0.0
0.0 6.145619260553195e-10 0.0
0.0 6.199837481602225e-10 0.0
0.0 5.180206077342171e-10 0.0
0.0 5.142635869165791e-10 0.0
0.0 5.761283801861125e-10 0.0
0.0 5.370508023716252e-10 0.0
0.0 4.707189699615686e-10 0.0
0.0 4.982382070937503e-10 0.0
0.0 5.201485215261031e-10 0.0
0.0 4.6403067629647653e-10 0.0
0.0 4.3835557681348587e-10 0.0
0.0 4.686349943943743e-10 0.0
0.0 4.5359225551465094e-10 0.0
0.0 4.0723089960907204e-10 0.0
0.0 4.1074617797310743e-10 0.0
0.0 4.223306671038419e-10 0.0
0.0 3.88391625983822e-10 0.0
0.0 3.6516254721615575e-10 0.0
0.0 3.7673797447411554e-10 0.0
0.0 3.6504718195110653e-10 0.0
0.0 3.328124243037038e-10 0.0
0.0 3.2956178421918993e-10 0.0
0.0 3.316986359330092e-10 0.0
0.0 3.0585561472429566e-10 0.0
0.0 2.8817214587000633e-10 0.0
0.0 2.9151427230182507e-10 0.0
0.0 2.772384028814529e-10 0.0
0.0 2.5303568764978355e-10 0.0
0.0 2.4981343092102877e-10 0.0
0.0 2.4428555469529224e-10 0.0
0.0 2.2117563015001386e-10 0.0
0.0 2.1002494072670177e-10 0.0
0.0 2.077591811396155e-10 0.0
0.0 1.895579490891683e-10 0.0
0.0 1.729805785453598e-10 0.0
0.0 1.6963442652512555e-10 0.0
0.0 1.5657624061926023e-10 0.0
0.0 1.3792647678355996e-10 0.0
0.0 1.315346197385128e-10 0.0
0.0 1.2201061950102513e-10 0.0
0.0 1.0370666498113702e-10 0.0
0.0 9.421638580307928e-11 0.0
0.0 8.637615053902534e-11 0.0
0.0 6.947172274034909e-11 0.0
0.0 5.770918500661161e-11 0.0
0.0 5.0318008590313283e-11 0.0
0.0 3.487975527702712e-11 0.0
0.0 2.1673499870846955e-11 0.0
0.0 1.4268447338714655e-11 0.0
0.0 1.4268446957255288e-11 0.0
0.0 2.167349961274106e-11 0.0
0.0 3.4879755467674335e-11 0.0
0.0 5.031800903851327e-11 0.0
0.0 5.770918533573135e-11 0.0
0.0 6.94717228334407e-11 0.0
0.0 8.637615084325942e-11 0.0
0.0 9.421638626814526e-11 0.0
0.0 1.0370666530073534e-10 0.0
0.0 1.2201061884947482e-10 0.0
0.0 1.3153461922552016e-10 0.0
0.0 1.3792647709830955e-10 0.0
0.0 1.5657624003044735e-10 0.0
0.0 1.6963442572470294e-10 0.0
0.0 1.72980578545569e-10 0.0
0.0 1.895579485913284e-10 0.0
0.0 2.0775918029723358e-10 0.0
0.0 2.1002493999989257e-10 0.0
0.0 2.211756299724906e-10 0.0
0.0 2.4428555464328786e-10 0.0
0.0 2.498134306287432e-10 0.0
0.0 2.5303568718656747e-10 0.0
0.0 2.772384025580344e-10 0.0
0.0 2.915142727961183e-10 0.0
0.0 2.881721465085967e-10 0.0
0.0 3.05855614810159e-10 0.0
0.0 3.316986354492056e-10 0.0
0.0 3.295617846772248e-10 0.0
0.0 3.328124244964578e-10 0.0
0.0 3.650471818373916e-10 0.0
0.0 3.7673797519929294e-10 0.0
0.0 3.6516254762317416e-10 0.0
0.0 3.8839162642144923e-10 0.0
0.0 4.223306672154264e-10 0.0
0.0 4.107461781900954e-10 0.0
0.0 4.0723089918238896e-10 0.0
0.0 4.5359225583924256e-10 0.0
0.0 4.686349946830654e-10 0.0
0.0 4.3835557672087524e-10 0.0
0.0 4.640306769639463e-10 0.0
0.0 5.201485220331954e-10 0.0
0.0 4.982382064581692e-10 0.0
0.0 4.707189682036832e-10 0.0
0.0 5.370508016542839e-10 0.0
0.0 5.761283802804331e-10 0.0
0.0 5.142635866700615e-10 0.0
0.0 5.180206067172601e-10 0.0
0.0 6.199837466236877e-10 0.0
0.0 6.145619271908518e-10 0.0
0.0 5.238221222042183e-10 0.0
0.0 5.843141440906996e-10 0.0
0.0 7.067781815105129e-10 0.0
0.0 6.32915420646667e-10 0.0
0.0 5.313249236651355e-10 0.0
0.0 6.717586766700561e-10 0.0
0.0 7.94558203246816e-10 0.0
0.0 6.29189866111075e-10 0.0
0.0 5.376731110185545e-10 0.0
0.0 7.820454523200584e-10 0.0
0.0 8.859267348775927e-10 0.0
0.0 6.015245094547489e-10 0.0
0.0 5.34703558022706e-10 0.0
0.0 9.184411172032914e-10 0.0
0.0 9.964066003993591e-10 0.0
0.0 5.443315766851234e-10 0.0
0.0 4.977770649374942e-10 0.0
0.0 1.088064699520601e-09 0.0
0.0 1.1627762092792586e-09 0.0
0.0 4.521605518078987e-10 0.0
0.0 3.7251726304607334e-10 0.0
0.0 1.2886601755003165e-09 0.0
0.0 1.4647469755055221e-09 0.0
0.0 3.455534205144986e-10 0.0
0.0 4.552390966093891e-11 0.0
0.0 1.4621119607169864e-09 0.0
0.0 2.0552999910779527e-09 0.0
0.0 3.544875118343374e-10 0.0
0.0 -6.731028380757779e-10 0.0
0.0 1.3506549170911037e-09 0.0
0.0 3.1363482319354517e-09 0.0
0.0 9.460687536758432e-10 0.0
0.0 -1.922353516148685e-09 0.0
0.0 1.7631856001250068e-10 0.0
0.0 4.611451421959742e-09 0.0
0.0 3.2977391682606274e-09 0.0
0.0 -3.033597461002202e-09 0.0
0.0 -3.617492240956731e-09 0.0
0.0 4.67424885181418e-09 0.0
0.0 9.00023669914722e-09 0.0
0.0 -2.815889912785129e-10 0.0
0.0 -1.0592701212845452e-08 0.0
0.0 -3.035827028528178e-09 0.0
0.0 1.5257530194488938e-08 0.0
0.0 1.506792365066723e-08 0.0
0.0 -1.061805020143767e-08 0.0
0.0 -2.6347669955678034e-08 0.0
0.0 -1.847602622093263e-10 0.0
0.0 4.0338671584778576e-08 0.0
0.0 3.19145049463404e-08 0.0
0.0 -3.335338551166832e-08 0.0
0.0 -7.277740986153388e-08 0.0
0.0 -8.904153632950438e-09 0.0
0.0 1.0564858338954426e-07 0.0
0.0 1.1349392322111824e-07 0.0
0.0 -5.404829698468824e-08 0.0
0.0 -2.332263973773655e-07 0.0
0.0 -1.5771641111505504e-07 0.0
0.0 2.0924419019145657e-07 0.0
0.0 5.067438464270964e-07 0.0
0.0 2.615503261988981e-07 0.0
0.0 -5.412635020471027e-07 0.0
0.0 -1.1782064570826757e-06 0.0
0.0 -6.614025130564135e-07 0.0
0.0 1.2193761385836751e-06 0.0
0.0 3.1435302220668358e-06 0.0
0.0 2.7198763833780736e-06 0.0
0.0 -1.6290737106374365e-06 0.0
0.0 -8.19284041031402e-06 0.0
0.0 -1.0373044433785162e-05 0.0
0.0 2.839060787608674e-06 0.0
0.0 4.412865199996801e-05 0.0
0.0 0.0001238574637636614 0.0
0.0 0.00024643211887291963 0.0
0.0 0.0004084841587113269 0.0
0.0 0.0005994634331627566 0.0
0.0 0.0008042451542865594 0.0
0.0 0.001006670577918208 0.0
0.0 0.0011928106124931084 0.0
0.0 0.00135308824724939 0.0
0.0 0.001482960851801312 0.0
0.0 0.0015823725918581062 0.0
0.0 0.0016544736274932655 0.0
0.0 0.0017041406151009568 0.0
0.0 0.0017366975837004221 0.0
0.0 0.0017570363966291156 0.0
0.0 0.0017691597953420053 0.0
0.0 0.0017760610327317073 0.0
0.0 0.001779815148293372 0.0
0.0 0.0017817674005247389 0.0
0.0 0.0017827380886669146 0.0
0.0 0.0017831995170602116 0.0
0.0 0.001783409153588179 0.0
0.0 0.0017835001252707006 0.0
0.0 0.001783537797903213 0.0
0.0 0.0017835526664856435 0.0
0.0 0.0017835582497247498 0.0
0.0 0.0017835602399302632 0.0
0.0 0.0017835609114239882 0.0
0.0 0.0017835611251854789 0.0
0.0 0.001783561189258547 0.0
0.0 0.0017835612074341906 0.0
0.0 0.0017835612125615729 0.0
0.0 0.0017835612142495748 0.0
0.0 0.0017835612151201868 0.0
0.0 0.0017835612158314691 0.0
0.0 0.0017835612164809505 0.0
0.0 0.0017835612171309557 0.0
0.0 0.0017835612177624627 0.0
0.0 0.0017835612183705776 0.0
0.0 0.001783561218980836 0.0
0.0 0.001783561219560111 0.0
0.0 0.0017835612201326336 0.0
0.0 0.001783561220693167 0.0
0.0 0.0017835612212276856 0.0
0.0 0.0017835612217606022 0.0
0.0 0.0017835612222699888 0.0
0.0 0.0017835612227649997 0.0
0.0 0.0017835612232522768 0.0
0.0 0.0017835612237143404 0.0
0.0 0.001783561224169671 0.0
0.0 0.001783561224608246 0.0
0.0 0.001783561225027223 0.0
0.0 0.001783561225439881 0.0
0.0 0.0017835612258301384 0.0
0.0 0.0017835612262080912 0.0
0.0 0.0017835612265751305 0.0
0.0 0.00178356122691882 0.0
0.0 0.0017835612272566407 0.0
0.0 0.0017835612275746051 0.0
0.0 0.0017835612278763115 0.0
0.0 0.0017835612281704894 0.0
0.0 0.0017835612284400112 0.0
0.0 0.0017835612287024063 0.0
0.0 0.0017835612289481295 0.0
0.0 0.0017835612291737918 0.0
0.0 0.0017835612293948878 0.0
0.0 0.0017835612295900951 0.0
0.0 0.001783561229777599 0.0
0.0 0.0017835612299501253 0.0
0.0 0.0017835612301008489 0.0
0.0 0.0017835612302478504 0.0
0.0 0.001783561230369505 0.0
0.0 0.0017835612304817141 0.0
0.0 0.00178356123058126 0.0
0.0 0.0017835612306568937 0.0
0.0 0.001783561230730089 0.0
0.0 0.0017835612307776823 0.0
0.0 0.0017835612308152583 0.0
0.0 0.0017835612308410174 0.0
0.0 0.0017835612308410172 0.0
0.0 0.0017835612308152744 0.0
0.0 0.0017835612307776968 0.0
0.0 0.001783561230730088 0.0
0.0 0.0017835612306569026 0.0
0.0 0.0017835612305812743 0.0
0.0 0.0017835612304817063 0.0
0.0 0.0017835612303695055 0.0
0.0 0.0017835612302478602 0.0
0.0 0.0017835612301008543 0.0
0.0 0.0017835612299501162 0.0
0.0 0.0017835612297775836 0.0
0.0 0.001783561229590086 0.0
0.0 0.0017835612293948774 0.0
0.0 0.0017835612291737853 0.0
0.0 0.0017835612289481349 0.0
0.0 0.0017835612287024015 0.0
0.0 0.0017835612284400218 0.0
0.0 0.0017835612281704835 0.0
0.0 0.0017835612278763026 0.0
0.0 0.0017835612275745967 0.0
0.0 0.0017835612272566307 0.0
0.0 0.0017835612269188283 0.0
0.0 0.0017835612265751156 0.0
0.0 0.0017835612262080975 0.0
0.0 0.001783561225830129 0.0
0.0 0.0017835612254398754 0.0
0.0 0.001783561225027221 0.0
0.0 0.0017835612246082492 0.0
0.0 0.0017835612241696734 0.0
0.0 0.0017835612237143415 0.0
0.0 0.001783561223252274 0.0
0.0 0.0017835612227650019 0.0
0.0 0.0017835612222699944 0.0
0.0 0.0017835612217606078 0.0
0.0 0.001783561221227691 0.0
0.0 0.0017835612206931633 0.0
0.0 0.0017835612201326358 0.0
0.0 0.0017835612195601157 0.0
0.0 0.001783561218980841 0.0
0.0 0.0017835612183705728 0.0
0.0 0.001783561217762457 0.0
0.0 0.0017835612171309464 0.0
0.0 0.0017835612164809557 0.0
0.0 0.0017835612158314744 0.0
0.0 0.0017835612151201985 0.0
0.0 0.0017835612142495967 0.0
0.0 0.0017835612125615716 0.0
0.0 0.0017835612074341917 0.0
0.0 0.0017835611892585378 0.0
0.0 0.001783561125185473 0.0
0.0 0.001783560911424006 0.0
0.0 0.0017835602399302669 0.0
0.0 0.001783558249724741 0.0
0.0 0.0017835526664856498 0.0
0.0 0.001783537797903209 0.0
0.0 0.0017835001252706978 0.0