# vtk DataFile Version 2.0
data_973
ASCII
DATASET UNSTRUCTURED_GRID
POINTS 804 float
0.0 0.0 0.0
0.1 0.0 0.0
0.1 20.0 0.0
0.0 20.0 0.0
0.0 0.0 -0.1
0.1 0.0 -0.1
0.1 20.0 -0.1
0.0 20.0 -0.1
0.1 0.09999999999992462 0.0
0.1 0.1999999999998517 0.0
0.1 0.2999999999997818 0.0
0.1 0.399999999999712 0.0
0.1 0.4999999999996377 0.0
0.1 0.5999999999995541 0.0
0.1 0.6999999999994495 0.0
0.1 0.7999999999993355 0.0
0.1 0.8999999999992101 0.0
0.1 0.999999999999102 0.0
0.1 1.099999999999006 0.0
0.1 1.199999999998936 0.0
0.1 1.299999999998867 0.0
0.1 1.399999999998797 0.0
0.1 1.499999999998727 0.0
0.1 1.599999999998657 0.0
0.1 1.699999999998587 0.0
0.1 1.799999999998517 0.0
0.1 1.899999999998447 0.0
0.1 1.999999999998378 0.0
0.1 2.099999999998308 0.0
0.1 2.199999999998238 0.0
0.1 2.299999999998168 0.0
0.1 2.399999999998067 0.0
0.1 2.499999999997942 0.0
0.1 2.599999999997706 0.0
0.1 2.699999999997444 0.0
0.1 2.799999999997153 0.0
0.1 2.899999999996861 0.0
0.1 2.999999999996569 0.0
0.1 3.099999999996277 0.0
0.1 3.199999999995984 0.0
0.1 3.299999999995693 0.0
0.1 3.399999999995401 0.0
0.1 3.499999999995108 0.0
0.1 3.599999999994816 0.0
0.1 3.699999999994525 0.0
0.1 3.799999999994232 0.0
0.1 3.89999999999394 0.0
0.1 3.999999999993648 0.0
0.1 4.099999999993356 0.0
0.1 4.199999999993064 0.0
0.1 4.299999999992772 0.0
0.1 4.399999999992479 0.0
0.1 4.499999999992188 0.0
0.1 4.599999999991895 0.0
0.1 4.699999999991603 0.0
0.1 4.799999999991311 0.0
0.1 4.899999999991019 0.0
0.1 4.999999999990727 0.0
0.1 5.099999999990436 0.0
0.1 5.199999999990144 0.0
0.1 5.299999999989851 0.0
0.1 5.399999999989559 0.0
0.1 5.499999999989267 0.0
0.1 5.599999999988975 0.0
0.1 5.699999999988683 0.0
0.1 5.799999999988391 0.0
0.1 5.899999999988099 0.0
0.1 5.999999999987806 0.0
0.1 6.099999999987515 0.0
0.1 6.199999999987222 0.0
0.1 6.299999999986929 0.0
0.1 6.399999999986638 0.0
0.1 6.499999999986345 0.0
0.1 6.599999999986054 0.0
0.1 6.699999999985762 0.0
0.1 6.79999999998547 0.0
0.1 6.899999999985177 0.0
0.1 6.999999999984885 0.0
0.1 7.099999999984593 0.0
0.1 7.199999999984302 0.0
0.1 7.299999999984009 0.0
0.1 7.399999999983717 0.0
0.1 7.499999999983426 0.0
0.1 7.599999999983132 0.0
0.1 7.699999999982841 0.0
0.1 7.799999999982549 0.0
0.1 7.899999999982256 0.0
0.1 7.999999999982034 0.0
0.1 8.099999999981964 0.0
0.1 8.199999999982062 0.0
0.1 8.299999999982214 0.0
0.1 8.399999999982366 0.0
0.1 8.499999999982517 0.0
0.1 8.59999999998267 0.0
0.1 8.699999999982822 0.0
0.1 8.799999999982973 0.0
0.1 8.899999999983125 0.0
0.1 8.999999999983277 0.0
0.1 9.09999999998343 0.0
0.1 9.19999999998358 0.0
0.1 9.299999999983733 0.0
0.1 9.399999999983885 0.0
0.1 9.499999999984038 0.0
0.1 9.599999999984188 0.0
0.1 9.69999999998434 0.0
0.1 9.799999999984493 0.0
0.1 9.899999999984646 0.0
0.1 9.999999999984798 0.0
0.1 10.09999999998495 0.0
0.1 10.1999999999851 0.0
0.1 10.29999999998525 0.0
0.1 10.39999999998541 0.0
0.1 10.49999999998556 0.0
0.1 10.59999999998571 0.0
0.1 10.69999999998586 0.0
0.1 10.79999999998601 0.0
0.1 10.89999999998616 0.0
0.1 10.99999999998632 0.0
0.1 11.09999999998647 0.0
0.1 11.19999999998662 0.0
0.1 11.29999999998677 0.0
0.1 11.39999999998693 0.0
0.1 11.49999999998708 0.0
0.1 11.59999999998723 0.0
0.1 11.69999999998738 0.0
0.1 11.79999999998754 0.0
0.1 11.89999999998769 0.0
0.1 11.99999999998784 0.0
0.1 12.09999999998799 0.0
0.1 12.19999999998814 0.0
0.1 12.2999999999883 0.0
0.1 12.39999999998845 0.0
0.1 12.4999999999886 0.0
0.1 12.59999999998875 0.0
0.1 12.6999999999889 0.0
0.1 12.79999999998905 0.0
0.1 12.89999999998921 0.0
0.1 12.99999999998936 0.0
0.1 13.09999999998951 0.0
0.1 13.19999999998966 0.0
0.1 13.29999999998982 0.0
0.1 13.39999999998997 0.0
0.1 13.49999999999012 0.0
0.1 13.59999999999027 0.0
0.1 13.69999999999042 0.0
0.1 13.79999999999057 0.0
0.1 13.89999999999073 0.0
0.1 13.99999999999088 0.0
0.1 14.09999999999103 0.0
0.1 14.19999999999118 0.0
0.1 14.29999999999134 0.0
0.1 14.39999999999149 0.0
0.1 14.49999999999164 0.0
0.1 14.59999999999179 0.0
0.1 14.69999999999194 0.0
0.1 14.7999999999921 0.0
0.1 14.89999999999225 0.0
0.1 14.9999999999924 0.0
0.1 15.09999999999255 0.0
0.1 15.1999999999927 0.0
0.1 15.29999999999285 0.0
0.1 15.39999999999301 0.0
0.1 15.49999999999316 0.0
0.1 15.59999999999331 0.0
0.1 15.69999999999346 0.0
0.1 15.79999999999362 0.0
0.1 15.89999999999377 0.0
0.1 15.99999999999392 0.0
0.1 16.09999999999407 0.0
0.1 16.19999999999422 0.0
0.1 16.29999999999437 0.0
0.1 16.39999999999453 0.0
0.1 16.49999999999468 0.0
0.1 16.59999999999483 0.0
0.1 16.69999999999498 0.0
0.1 16.79999999999514 0.0
0.1 16.89999999999528 0.0
0.1 16.99999999999544 0.0
0.1 17.09999999999559 0.0
0.1 17.19999999999574 0.0
0.1 17.29999999999589 0.0
0.1 17.39999999999605 0.0
0.1 17.4999999999962 0.0
0.1 17.59999999999635 0.0
0.1 17.6999999999965 0.0
0.1 17.79999999999665 0.0
0.1 17.89999999999681 0.0
0.1 17.99999999999696 0.0
0.1 18.09999999999711 0.0
0.1 18.19999999999726 0.0
0.1 18.29999999999742 0.0
0.1 18.39999999999757 0.0
0.1 18.49999999999772 0.0
0.1 18.59999999999787 0.0
0.1 18.69999999999802 0.0
0.1 18.79999999999818 0.0
0.1 18.89999999999833 0.0
0.1 18.99999999999848 0.0
0.1 19.09999999999863 0.0
0.1 19.19999999999878 0.0
0.1 19.29999999999894 0.0
0.1 19.39999999999909 0.0
0.1 19.49999999999924 0.0
0.1 19.59999999999939 0.0
0.1 19.69999999999955 0.0
0.1 19.7999999999997 0.0
0.1 19.89999999999985 0.0
0.0 19.9 0.0
0.0 19.8 0.0
0.0 19.7 0.0
0.0 19.6 0.0
0.0 19.5 0.0
0.0 19.4 0.0
0.0 19.3 0.0
0.0 19.2 0.0
0.0 19.1 0.0
0.0 19.0 0.0
0.0 18.9 0.0
0.0 18.8 0.0
0.0 18.7 0.0
0.0 18.6 0.0
0.0 18.5 0.0
0.0 18.4 0.0
0.0 18.3 0.0
0.0 18.2 0.0
0.0 18.1 0.0
0.0 18.0 0.0
0.0 17.9 0.0
0.0 17.8 0.0
0.0 17.7 0.0
0.0 17.6 0.0
0.0 17.5 0.0
0.0 17.4 0.0
0.0 17.3 0.0
0.0 17.2 0.0
0.0 17.09999999999999 0.0
0.0 17.0 0.0
0.0 16.9 0.0
0.0 16.8 0.0
0.0 16.7 0.0
0.0 16.59999999999999 0.0
0.0 16.49999999999999 0.0
0.0 16.4 0.0
0.0 16.29999999999999 0.0
0.0 16.2 0.0
0.0 16.09999999999999 0.0
0.0 15.99999999999999 0.0
0.0 15.89999999999999 0.0
0.0 15.79999999999999 0.0
0.0 15.69999999999999 0.0
0.0 15.59999999999999 0.0
0.0 15.49999999999999 0.0
0.0 15.39999999999999 0.0
0.0 15.29999999999999 0.0
0.0 15.19999999999999 0.0
0.0 15.09999999999999 0.0
0.0 14.99999999999999 0.0
0.0 14.89999999999999 0.0
0.0 14.79999999999999 0.0
0.0 14.69999999999999 0.0
0.0 14.59999999999999 0.0
0.0 14.49999999999999 0.0
0.0 14.39999999999999 0.0
0.0 14.29999999999999 0.0
0.0 14.19999999999999 0.0
0.0 14.09999999999999 0.0
0.0 13.99999999999999 0.0
0.0 13.89999999999999 0.0
0.0 13.79999999999999 0.0
0.0 13.69999999999999 0.0
0.0 13.59999999999999 0.0
0.0 13.49999999999999 0.0
0.0 13.39999999999999 0.0
0.0 13.29999999999999 0.0
0.0 13.19999999999999 0.0
0.0 13.09999999999999 0.0
0.0 12.99999999999999 0.0
0.0 12.89999999999999 0.0
0.0 12.79999999999999 0.0
0.0 12.69999999999999 0.0
0.0 12.59999999999999 0.0
0.0 12.49999999999999 0.0
0.0 12.39999999999999 0.0
0.0 12.29999999999999 0.0
0.0 12.19999999999999 0.0
0.0 12.09999999999999 0.0
0.0 11.99999999999999 0.0
0.0 11.89999999999999 0.0
0.0 11.79999999999999 0.0
0.0 11.69999999999999 0.0
0.0 11.59999999999999 0.0
0.0 11.49999999999999 0.0
0.0 11.39999999999999 0.0
0.0 11.29999999999999 0.0
0.0 11.19999999999999 0.0
0.0 11.09999999999999 0.0
0.0 10.99999999999999 0.0
0.0 10.89999999999999 0.0
0.0 10.79999999999999 0.0
0.0 10.69999999999999 0.0
0.0 10.59999999999999 0.0
0.0 10.49999999999999 0.0
0.0 10.39999999999999 0.0
0.0 10.29999999999999 0.0
0.0 10.19999999999999 0.0
0.0 10.09999999999999 0.0
0.0 9.999999999999993 0.0
0.0 9.899999999999993 0.0
0.0 9.799999999999994 0.0
0.0 9.699999999999992 0.0
0.0 9.599999999999993 0.0
0.0 9.499999999999993 0.0
0.0 9.399999999999993 0.0
0.0 9.299999999999995 0.0
0.0 9.199999999999996 0.0
0.0 9.099999999999994 0.0
0.0 8.999999999999995 0.0
0.0 8.899999999999995 0.0
0.0 8.799999999999994 0.0
0.0 8.699999999999994 0.0
0.0 8.599999999999994 0.0
0.0 8.499999999999995 0.0
0.0 8.399999999999995 0.0
0.0 8.299999999999994 0.0
0.0 8.199999999999994 0.0
0.0 8.099999999999994 0.0
0.0 7.999999999999993 0.0
0.0 7.899999999999995 0.0
0.0 7.799999999999995 0.0
0.0 7.699999999999996 0.0
0.0 7.599999999999996 0.0
0.0 7.499999999999996 0.0
0.0 7.399999999999995 0.0
0.0 7.299999999999995 0.0
0.0 7.199999999999996 0.0
0.0 7.099999999999994 0.0
0.0 6.999999999999995 0.0
0.0 6.899999999999995 0.0
0.0 6.799999999999995 0.0
0.0 6.699999999999996 0.0
0.0 6.599999999999994 0.0
0.0 6.499999999999995 0.0
0.0 6.399999999999997 0.0
0.0 6.299999999999997 0.0
0.0 6.199999999999996 0.0
0.0 6.099999999999996 0.0
0.0 5.999999999999996 0.0
0.0 5.899999999999997 0.0
0.0 5.799999999999997 0.0
0.0 5.699999999999996 0.0
0.0 5.599999999999996 0.0
0.0 5.499999999999996 0.0
0.0 5.399999999999995 0.0
0.0 5.299999999999995 0.0
0.0 5.199999999999996 0.0
0.0 5.099999999999996 0.0
0.0 4.999999999999998 0.0
0.0 4.899999999999999 0.0
0.0 4.799999999999997 0.0
0.0 4.699999999999998 0.0
0.0 4.599999999999998 0.0
0.0 4.499999999999996 0.0
0.0 4.399999999999997 0.0
0.0 4.299999999999997 0.0
0.0 4.199999999999998 0.0
0.0 4.099999999999998 0.0
0.0 3.999999999999996 0.0
0.0 3.899999999999999 0.0
0.0 3.799999999999997 0.0
0.0 3.699999999999996 0.0
0.0 3.599999999999998 0.0
0.0 3.5 0.0
0.0 3.399999999999999 0.0
0.0 3.299999999999997 0.0
0.0 3.199999999999999 0.0
0.0 3.099999999999998 0.0
0.0 3.0 0.0
0.0 2.899999999999999 0.0
0.0 2.799999999999997 0.0
0.0 2.699999999999999 0.0
0.0 2.599999999999998 0.0
0.0 2.499999999999996 0.0
0.0 2.399999999999999 0.0
0.0 2.299999999999997 0.0
0.0 2.199999999999999 0.0
0.0 2.100000000000001 0.0
0.0 2.0 0.0
0.0 1.899999999999999 0.0
0.0 1.800000000000001 0.0
0.0 1.699999999999999 0.0
0.0 1.599999999999998 0.0
0.0 1.5 0.0
0.0 1.399999999999999 0.0
0.0 1.299999999999997 0.0
0.0 1.199999999999999 0.0
0.0 1.099999999999998 0.0
0.0 1.0 0.0
0.0 0.8999999999999986 0.0
0.0 0.8000000000000007 0.0
0.0 0.6999999999999993 0.0
0.0 0.6000000000000014 0.0
0.0 0.5 0.0
0.0 0.3999999999999986 0.0
0.0 0.3000000000000007 0.0
0.0 0.1999999999999993 0.0
[...]
POINT_DATA 804
VECTORS displacement double
0.0 0.0 0.0
0.0 0.0 0.0
0.0 0.0017835828887868852 0.0
0.0 0.0017835828887868739 0.0
0.0 0.0 0.0
0.0 0.0 0.0
0.0 0.001783582888786882 0.0
0.0 0.0017835828887868817 0.0
0.0 1.6215192001347665e-11 0.0
0.0 2.0565306014865635e-11 0.0
0.0 3.350658134607242e-11 0.0
0.0 5.2275042002798255e-11 0.0
0.0 5.803349048268783e-11 0.0
0.0 6.716971792304456e-11 0.0
0.0 8.737917789782298e-11 0.0
0.0 9.618116486661619e-11 0.0
0.0 1.0141115783804242e-10 0.0
0.0 1.211540593432766e-10 0.0
0.0 1.3469152276094476e-10 0.0
0.0 1.3701989903556004e-10 0.0
0.0 1.5343751150346804e-10 0.0
0.0 1.7260906613851134e-10 0.0
0.0 1.7490195404748127e-10 0.0
0.0 1.8485750216545007e-10 0.0
0.0 2.083123038112259e-10 0.0
0.0 2.1533374827482198e-10 0.0
0.0 2.173325954855164e-10 0.0
0.0 2.401971543021678e-10 0.0
0.0 2.568702310975402e-10 0.0
0.0 2.538290677333427e-10 0.0
0.0 2.682873629263125e-10 0.0
0.0 2.9570153687598637e-10 0.0
0.0 2.9657900439030335e-10 0.0
0.0 2.9615129199974626e-10 0.0
0.0 3.26933373622439e-10 0.0
0.0 3.4377114465104287e-10 0.0
0.0 3.31040417150448e-10 0.0
0.0 3.4896595529151495e-10 0.0
0.0 3.869808904994489e-10 0.0
0.0 3.793620993464301e-10 0.0
0.0 3.6933741804565736e-10 0.0
0.0 4.1426188217118437e-10 0.0
0.0 4.3724571361335485e-10 0.0
0.0 4.052024905407435e-10 0.0
0.0 4.226581949071827e-10 0.0
0.0 4.839814389779845e-10 0.0
0.0 4.694535404131231e-10 0.0
0.0 4.3331886179790963e-10 0.0
0.0 4.941706273362034e-10 0.0
0.0 5.45068503123429e-10 0.0
0.0 4.856874889933938e-10 0.0
0.0 4.748609920965236e-10 0.0
0.0 5.784387306288851e-10 0.0
0.0 5.896183783958276e-10 0.0
0.0 4.921855695528389e-10 0.0
0.0 5.350659647998918e-10 0.0
0.0 6.700455257671847e-10 0.0
0.0 6.136854574159972e-10 0.0
0.0 4.932726192201065e-10 0.0
0.0 6.173440624991054e-10 0.0
0.0 7.656389741372089e-10 0.0
0.0 6.146558893594717e-10 0.0
0.0 4.905406016432198e-10 0.0
0.0 7.231300834611473e-10 0.0
0.0 8.673700989790602e-10 0.0
0.0 5.917244751863307e-10 0.0
0.0 4.757951690888193e-10 0.0
0.0 8.53985779730514e-10 0.0
0.0 9.912170367418508e-10 0.0
0.0 5.416965633357773e-10 0.0
0.0 4.2377478501527326e-10 0.0
0.0 1.0136016572542513e-09 0.0
0.0 1.1744329464322519e-09 0.0
0.0 4.6417449660877274e-10 0.0
0.0 2.8015520112986354e-10 0.0
0.0 1.1923840570343014e-09 0.0
0.0 1.495455014426809e-09 0.0
0.0 3.899169312385696e-10 0.0
0.0 -6.453962256092594e-11 0.0
0.0 1.3187255666827015e-09 0.0
0.0 2.098054204551279e-09 0.0
0.0 4.6555413906126534e-10 0.0
0.0 -7.814617540761689e-10 0.0
0.0 1.1165137944128105e-09 0.0
0.0 3.149839393905003e-09 0.0
0.0 1.1735367510043187e-09 0.0
0.0 -1.952339367288441e-09 0.0
0.0 -1.934548981183557e-10 0.0
0.0 4.467230758524181e-09 0.0
0.0 3.6566285644409456e-09 0.0
0.0 -2.790567310828144e-09 0.0
0.0 -4.060601252297322e-09 0.0
0.0 4.112455754230986e-09 0.0
0.0 9.274645005352656e-09 0.0
0.0 5.155694211915429e-10 0.0
0.0 -1.0640219941212373e-08 0.0
0.0 -4.185468074539567e-09 0.0
0.0 1.4642962590460396e-08 0.0
0.0 1.620563497432116e-08 0.0
0.0 -9.174050526307407e-09 0.0
0.0 -2.7059462052875197e-08 0.0
0.0 -2.6933772022395927e-09 0.0
0.0 3.953610309325576e-08 0.0
0.0 3.476773614222683e-08 0.0
0.0 -3.0127809695615464e-08 0.0
0.0 -7.431458275385591e-08 0.0
0.0 -1.4839120520609721e-08 0.0
0.0 1.0265055138613587e-07 0.0
0.0 1.1934532079450807e-07 0.0
0.0 -4.413038332365462e-08 0.0
0.0 -2.321082295914209e-07 0.0
0.0 -1.7152591954920028e-07 0.0
0.0 1.9244667686009384e-07 0.0
0.0 5.088930234642e-07 0.0
0.0 2.9043679707536425e-07 0.0
0.0 -5.086259578932961e-07 0.0
0.0 -1.1824690615993836e-06 0.0
0.0 -7.215581952199608e-07 0.0
0.0 1.1394693652421604e-06 0.0
0.0 3.1263664074682915e-06 0.0
0.0 2.8340917338968394e-06 0.0
0.0 -1.409940920109029e-06 0.0
0.0 -8.040450678525948e-06 0.0
0.0 -1.0583954903488172e-05 0.0
0.0 1.93418401514541e-06 0.0
0.0 4.2286748100380974e-05 0.0
0.0 0.00012102003815013324 0.0
0.0 0.00024275613335944516 0.0
0.0 0.0004042987650573667 0.0
0.0 0.0005951766363822239 0.0
0.0 0.000800240266776047 0.0
0.0 0.0010032280779570914 0.0
0.0 0.001190073624884871 0.0
0.0 0.0013510702758160217 0.0
0.0 0.0014815811786769665 0.0
0.0 0.001581500952671908 0.0
0.0 0.001653969485152807 0.0
0.0 0.0017038794337543314 0.0
0.0 0.0017365831441647401 0.0
0.0 0.0017570023322652003 0.0
0.0 0.0017691649020608888 0.0
0.0 0.001776082342013562 0.0
0.0 0.0017798413474601098 0.0
0.0 0.0017817937822649042 0.0
0.0 0.0017827632245688628 0.0
0.0 0.0017832233446566314 0.0
0.0 0.0017834320227458967 0.0
0.0 0.0017835224024826768 0.0
0.0 0.001783559748886576 0.0
0.0 0.001783574453140581 0.0
0.0 0.0017835799597692927 0.0
0.0 0.0017835819167230506 0.0
0.0 0.001783582574773661 0.0
0.0 0.0017835827834443894 0.0
0.0 0.0017835828457562473 0.0
0.0 0.0017835828633849828 0.0
0.0 0.00178358286836176 0.0
0.0 0.0017835828700589165 0.0
0.0 0.0017835828709524817 0.0
0.0 0.0017835828717043597 0.0
0.0 0.0017835828724081092 0.0
0.0 0.0017835828730889132 0.0
0.0 0.0017835828737752144 0.0
0.0 0.001783582874425802 0.0
0.0 0.0017835828750740463 0.0
0.0 0.0017835828757092013 0.0
0.0 0.0017835828763159635 0.0
0.0 0.0017835828769253272 0.0
0.0 0.0017835828775075986 0.0
0.0 0.0017835828780765166 0.0
0.0 0.0017835828786394877 0.0
0.0 0.0017835828791740865 0.0
0.0 0.001783582879704289 0.0
0.0 0.0017835828802179657 0.0
0.0 0.001783582880708946 0.0
0.0 0.0017835828811982569 0.0
0.0 0.0017835828816611487 0.0
0.0 0.0017835828821132623 0.0
0.0 0.0017835828825560687 0.0
0.0 0.0017835828829716907 0.0
0.0 0.001783582883385413 0.0
0.0 0.0017835828837773613 0.0
0.0 0.0017835828841516372 0.0
0.0 0.0017835828845228446 0.0
0.0 0.0017835828848635623 0.0
0.0 0.001783582885202032 0.0
0.0 0.0017835828855217923 0.0
0.0 0.001783582885820115 0.0
0.0 0.0017835828861178181 0.0
0.0 0.0017835828863850978 0.0
0.0 0.0017835828866476129 0.0
0.0 0.0017835828868953052 0.0
0.0 0.0017835828871177947 0.0
0.0 0.0017835828873420268 0.0
0.0 0.0017835828875353325 0.0
0.0 0.0017835828877228609 0.0
0.0 0.0017835828878971201 0.0
0.0 0.0017835828880451085 0.0
0.0 0.0017835828881947765 0.0
0.0 0.0017835828883148704 0.0
0.0 0.0017835828884269615 0.0
0.0 0.0017835828885281635 0.0
0.0 0.0017835828886012509 0.0
0.0 0.0017835828886769585 0.0
0.0 0.0017835828887230495 0.0
0.0 0.0017835828887606186 0.0
0.0 0.001783582888787846 0.0
0.0 0.0017835828887878464 0.0
0.0 0.0017835828887606217 0.0
0.0 0.001783582888723046 0.0
0.0 0.0017835828886769364 0.0
0.0 0.0017835828886012567 0.0
0.0 0.0017835828885281765 0.0
0.0 0.0017835828884269628 0.0
0.0 0.0017835828883148626 0.0
0.0 0.0017835828881947768 0.0
0.0 0.0017835828880451122 0.0
0.0 0.0017835828878971357 0.0
0.0 0.0017835828877228609 0.0
0.0 0.001783582887535344 0.0
0.0 0.001783582887342043 0.0
0.0 0.0017835828871177954 0.0
0.0 0.0017835828868952958 0.0
0.0 0.0017835828866476116 0.0
0.0 0.00178358288638511 0.0
0.0 0.001783582886117821 0.0
0.0 0.0017835828858201242 0.0
0.0 0.0017835828855217988 0.0
0.0 0.0017835828852020433 0.0
0.0 0.0017835828848635645 0.0
0.0 0.0017835828845228277 0.0
0.0 0.0017835828841516192 0.0
0.0 0.0017835828837773602 0.0
0.0 0.0017835828833854114 0.0
0.0 0.0017835828829716955 0.0
0.0 0.0017835828825560622 0.0
0.0 0.0017835828821132728 0.0
0.0 0.0017835828816611342 0.0
0.0 0.0017835828811982736 0.0
0.0 0.00178358288070894 0.0
0.0 0.0017835828802179525 0.0
0.0 0.0017835828797042868 0.0
0.0 0.0017835828791740824 0.0
0.0 0.001783582878639478 0.0
0.0 0.0017835828780765073 0.0
0.0 0.0017835828775076069 0.0
0.0 0.00178358287692534 0.0
0.0 0.0017835828763159685 0.0
0.0 0.0017835828757091926 0.0
0.0 0.0017835828750740314 0.0
0.0 0.0017835828744258012 0.0
0.0 0.0017835828737752114 0.0
0.0 0.0017835828730889019 0.0
0.0 0.0017835828724081131 0.0
0.0 0.0017835828717043584 0.0
0.0 0.0017835828709524834 0.0
0.0 0.0017835828700589207 0.0
0.0 0.0017835828683617524 0.0
0.0 0.0017835828633849973 0.0
0.0 0.0017835828457562586 0.0
0.0 0.001783582783444391 0.0
0.0 0.0017835825747736604 0.0
0.0 0.0017835819167230415 0.0
0.0 0.0017835799597692892 0.0
0.0 0.0017835744531405793 0.0
0.0 0.0017835597488865815 0.0
0.0 0.0017835224024826952 0.0
0.0 0.001783432022745911 0.0
0.0 0.001783223344656637 0.0
0.0 0.0017827632245689309 0.0
0.0 0.0017817937822650306 0.0
0.0 0.001779841347460377 0.0
0.0 0.0017760823420140566 0.0
0.0 0.0017691649020618193 0.0
0.0 0.001757002332266836 0.0
0.0 0.0017365831441674296 0.0
0.0 0.0017038794337586273 0.0
0.0 0.0016539694851593065 0.0
0.0 0.001581500952681255 0.0
0.0 0.0014815811786897093 0.0
0.0 0.001351070275832449 0.0
0.0 0.0011900736249048018 0.0
0.0 0.0010032280779798133 0.0
0.0 0.0008002402668001946 0.0
0.0 0.000595176636406 0.0
0.0 0.00040429876507877484 0.0
0.0 0.00024275613337681256 0.0
0.0 0.00012102003816245097 0.0
0.0 4.228674810763613e-05 0.0
0.0 1.934184018220913e-06 0.0
0.0 -1.0583954903110931e-05 0.0
0.0 -8.040450679302353e-06 0.0
0.0 -1.4099409209097888e-06 0.0
0.0 2.8340917336049006e-06 0.0
0.0 3.126366407626056e-06 0.0
0.0 1.1394693655425725e-06 0.0
0.0 -7.215581950516275e-07 0.0
0.0 -1.1824690616264338e-06 0.0
0.0 -5.086259580190289e-07 0.0
0.0 2.904367969960639e-07 0.0
0.0 5.088930234864929e-07 0.0
0.0 1.9244667692075151e-07 0.0
0.0 -1.715259195149422e-07 0.0
0.0 -2.3210822961032807e-07 0.0
0.0 -4.413038334758863e-08 0.0
0.0 1.193453207889744e-07 0.0
0.0 1.0265055139647264e-07 0.0
0.0 -1.4839120512817988e-08 0.0
0.0 -7.431458275537123e-08 0.0
0.0 -3.0127809705734814e-08 0.0
0.0 3.4767736135908255e-08 0.0
0.0 3.953610309158732e-08 0.0
0.0 -2.693377191725902e-09 0.0
0.0 -2.705946205665179e-08 0.0
0.0 -9.174050528021017e-09 0.0
0.0 1.6205634981289045e-08 0.0
0.0 1.4642962587153091e-08 0.0
0.0 -4.1854680768877195e-09 0.0
0.0 -1.0640219941569414e-08 0.0
0.0 5.155694186342047e-10 0.0
0.0 9.274645008874688e-09 0.0
0.0 4.112455757246799e-09 0.0
0.0 -4.060601252334746e-09 0.0
0.0 -2.790567312701476e-09 0.0
0.0 3.656628565024171e-09 0.0
0.0 4.467230761897165e-09 0.0
0.0 -1.9345489524115554e-10 0.0
0.0 -1.9523393652591154e-09 0.0
0.0 1.1735367493567309e-09 0.0
0.0 3.1498393908814725e-09 0.0
0.0 1.1165137918391147e-09 0.0
0.0 -7.814617536546094e-10 0.0
0.0 4.6555414361735703e-10 0.0
0.0 2.098054204536343e-09 0.0
0.0 1.3187255670473662e-09 0.0
0.0 -6.453962266496259e-11 0.0
0.0 3.8991693056364253e-10 0.0
0.0 1.495455014757364e-09 0.0
0.0 1.1923840568393833e-09 0.0
0.0 2.801551998034506e-10 0.0
0.0 4.641744975643326e-10 0.0
0.0 1.1744329464971252e-09 0.0
0.0 1.013601657170437e-09 0.0
0.0 4.2377478449709015e-10 0.0
0.0 5.416965610439308e-10 0.0
0.0 9.912170369494516e-10 0.0
0.0 8.539857795685108e-10 0.0
0.0 4.757951700132923e-10 0.0
0.0 5.917244772828835e-10 0.0
0.0 8.673700983287843e-10 0.0
0.0 7.231300823299821e-10 0.0
0.0 4.905406016217017e-10 0.0
0.0 6.146558884678825e-10 0.0
0.0 7.656389713983853e-10 0.0
0.0 6.173440631861568e-10 0.0
0.0 4.932726205415745e-10 0.0
0.0 6.136854551688247e-10 0.0
0.0 6.7004552410569e-10 0.0
0.0 5.35065964691811e-10 0.0
0.0 4.921855694128674e-10 0.0
0.0 5.89618378320898e-10 0.0
0.0 5.784387305839508e-10 0.0
0.0 4.748609910244459e-10 0.0
0.0 4.856874892870116e-10 0.0
0.0 5.450685040976824e-10 0.0
0.0 4.941706268746377e-10 0.0
0.0 4.333188616201779e-10 0.0
0.0 4.694535387990937e-10 0.0
0.0 4.839814373207018e-10 0.0
0.0 4.226581956338304e-10 0.0
0.0 4.052024919537418e-10 0.0
0.0 4.3724571341337365e-10 0.0
0.0 4.142618832115893e-10 0.0
0.0 3.6933741918098875e-10 0.0
0.0 3.7936209986495265e-10 0.0
0.0 3.869808912578208e-10 0.0
0.0 3.489659559817851e-10 0.0
0.0 3.310404173394189e-10 0.0
0.0 3.4377114405058507e-10 0.0
0.0 3.269333746575539e-10 0.0
0.0 2.961512928780288e-10 0.0
0.0 2.9657900412622124e-10 0.0
0.0 2.957015364595486e-10 0.0
0.0 2.6828736356155717e-10 0.0
0.0 2.5382906834613155e-10 0.0
0.0 2.568702313630706e-10 0.0
0.0 2.4019715427061344e-10 0.0
0.0 2.1733259541915614e-10 0.0
0.0 2.153337491679337e-10 0.0
0.0 2.0831230450282946e-10 0.0
0.0 1.848575023566936e-10 0.0
0.0 1.7490195391666935e-10 0.0
0.0 1.7260906623173594e-10 0.0
0.0 1.534375119071075e-10 0.0
0.0 1.3701989958256015e-10 0.0
0.0 1.3469152388567444e-10 0.0
0.0 1.2115405999273842e-10 0.0
0.0 1.0141115720297725e-10 0.0
0.0 9.618116408205913e-11 0.0
0.0 8.737917793845768e-11 0.0
0.0 6.716971782426719e-11 0.0
0.0 5.803349067182653e-11 0.0
0.0 5.2275042236034624e-11 0.0
0.0 3.350658132640553e-11 0.0
0.0 2.056530623033634e-11 0.0
0.0 1.6215192232762463e-11 0.0
0.0 1.6215191794083752e-11 0.0
0.0 2.0565306112831075e-11 0.0
0.0 3.3506581216512405e-11 0.0
0.0 5.227504228678661e-11 0.0
0.0 5.803349052546424e-11 0.0
0.0 6.716971718565923e-11 0.0
0.0 8.737917736927873e-11 0.0
0.0 9.618116413325882e-11 0.0
0.0 1.0141115700495485e-10 0.0
0.0 1.2115405892128372e-10 0.0
0.0 1.346915231931173e-10 0.0
0.0 1.3701989948973666e-10 0.0
0.0 1.5343751129802866e-10 0.0
0.0 1.7260906535028362e-10 0.0
0.0 1.7490195402689528e-10 0.0
0.0 1.8485750234045277e-10 0.0
0.0 2.0831230346236444e-10 0.0
0.0 2.1533374831869176e-10 0.0
0.0 2.1733259511234805e-10 0.0
0.0 2.401971540657893e-10 0.0
0.0 2.568702309533133e-10 0.0
0.0 2.538290677831606e-10 0.0
0.0 2.682873629643414e-10 0.0
0.0 2.9570153649498584e-10 0.0
0.0 2.9657900432063515e-10 0.0
0.0 2.961512921683766e-10 0.0
0.0 3.269333738452223e-10 0.0
0.0 3.437711440027875e-10 0.0
0.0 3.3104041760472533e-10 0.0
0.0 3.489659555304919e-10 0.0
0.0 3.8698089192910154e-10 0.0
0.0 3.793621000151156e-10 0.0
0.0 3.693374190653107e-10 0.0
0.0 4.1426188285080795e-10 0.0
0.0 4.3724571307608264e-10 0.0
0.0 4.0520249153754764e-10 0.0
0.0 4.226581954440666e-10 0.0
0.0 4.83981438123787e-10 0.0
0.0 4.694535387359605e-10 0.0
0.0 4.333188619203389e-10 0.0
0.0 4.94170627290505e-10 0.0
0.0 5.450685032319317e-10 0.0
0.0 4.856874879639069e-10 0.0
0.0 4.748609911586772e-10 0.0
0.0 5.784387323315422e-10 0.0
0.0 5.896183795123089e-10 0.0
0.0 4.921855700839266e-10 0.0
0.0 5.350659648089387e-10 0.0
0.0 6.700455255233299e-10 0.0
0.0 6.136854571008874e-10 0.0
0.0 4.93272619539979e-10 0.0
0.0 6.173440618681886e-10 0.0
0.0 7.656389724003728e-10 0.0
0.0 6.146558896003241e-10 0.0
0.0 4.905406014602175e-10 0.0
0.0 7.231300835684358e-10 0.0
0.0 8.673700981933177e-10 0.0
0.0 5.917244760281116e-10 0.0
0.0 4.757951695766746e-10 0.0
0.0 8.539857778101723e-10 0.0
0.0 9.912170356070293e-10 0.0
0.0 5.416965607467406e-10 0.0
0.0 4.2377478384166703e-10 0.0
0.0 1.0136016560666305e-09 0.0
0.0 1.1744329437213492e-09 0.0
0.0 4.641744984071213e-10 0.0
0.0 2.8015520270228947e-10 0.0
0.0 1.1923840567695597e-09 0.0
0.0 1.4954550149643133e-09 0.0
0.0 3.899169297058532e-10 0.0
0.0 -6.453962388404389e-11 0.0
0.0 1.3187255661472557e-09 0.0
0.0 2.0980542015018815e-09 0.0
0.0 4.6555414258096026e-10 0.0
0.0 -7.814617544941097e-10 0.0
0.0 1.1165137926585722e-09 0.0
0.0 3.149839391874077e-09 0.0
0.0 1.1735367489551959e-09 0.0
0.0 -1.952339366867369e-09 0.0
0.0 -1.9345489686186318e-10 0.0
0.0 4.467230757133753e-09 0.0
0.0 3.6566285652497624e-09 0.0
0.0 -2.7905673090983558e-09 0.0
0.0 -4.060601251127109e-09 0.0
0.0 4.112455754997367e-09 0.0
0.0 9.274645006468402e-09 0.0
0.0 5.155694146850184e-10 0.0
0.0 -1.0640219943717278e-08 0.0
0.0 -4.185468074814503e-09 0.0
0.0 1.4642962590448653e-08 0.0
0.0 1.6205634980440463e-08 0.0
0.0 -9.174050530125504e-09 0.0
0.0 -2.705946205780685e-08 0.0
0.0 -2.693377195654163e-09 0.0
0.0 3.9536103093565715e-08 0.0
0.0 3.476773614554856e-08 0.0
0.0 -3.012780969061993e-08 0.0
0.0 -7.431458275139086e-08 0.0
0.0 -1.4839120522736192e-08 0.0
0.0 1.0265055138503145e-07 0.0
0.0 1.193453207990501e-07 0.0
0.0 -4.4130383315440005e-08 0.0
0.0 -2.3210822959225114e-07 0.0
0.0 -1.7152591954961593e-07 0.0
0.0 1.9244667685863231e-07 0.0
0.0 5.088930234653576e-07 0.0
0.0 2.904367970677171e-07 0.0
0.0 -5.086259578989444e-07 0.0
0.0 -1.1824690615908843e-06 0.0
0.0 -7.215581952141886e-07 0.0
0.0 1.139469365241493e-06 0.0
0.0 3.1263664074671735e-06 0.0
0.0 2.83409173390122e-06 0.0
0.0 -1.409940920102475e-06 0.0
0.0 -8.040450678514952e-06 0.0
0.0 -1.0583954903486788e-05 0.0
0.0 1.934184015135923e-06 0.0
0.0 4.228674810037613e-05 0.0
0.0 0.00012102003815012816 0.0
0.0 0.0002427561333594554 0.0
0.0 0.0004042987650573604 0.0
0.0 0.0005951766363822164 0.0
0.0 0.0008002402667760331 0.0
0.0 0.0010032280779570916 0.0
0.0 0.0011900736248848709 0.0
0.0 0.0013510702758160345 0.0
0.0 0.0014815811786769717 0.0
0.0 0.0015815009526719066 0.0
0.0 0.001653969485152813 0.0
0.0 0.0017038794337543262 0.0
0.0 0.0017365831441647304 0.0
0.0 0.001757002332265205 0.0
0.0 0.0017691649020608877 0.0
0.0 0.001776082342013551 0.0
0.0 0.0017798413474601146 0.0
0.0 0.0017817937822648948 0.0
0.0 0.001782763224568855 0.0
0.0 0.0017832233446566036 0.0
0.0 0.0017834320227459 0.0
0.0 0.0017835224024826976 0.0
0.0 0.001783559748886589 0.0
0.0 0.0017835744531405821 0.0
0.0 0.0017835799597693076 0.0
0.0 0.0017835819167230443 0.0
0.0 0.001783582574773647 0.0
0.0 0.0017835827834443928 0.0
0.0 0.0017835828457562477 0.0
0.0 0.0017835828633849839 0.0
0.0 0.0017835828683617537 0.0
0.0 0.0017835828700589135 0.0
0.0 0.001783582870952486 0.0
0.0 0.0017835828717043662 0.0
0.0 0.0017835828724081127 0.0
0.0 0.001783582873088902 0.0
0.0 0.00178358287377521 0.0
0.0 0.0017835828744258058 0.0
0.0 0.00178358287507405 0.0
0.0 0.001783582875709201 0.0
0.0 0.0017835828763159683 0.0
0.0 0.0017835828769253387 0.0
0.0 0.0017835828775075915 0.0
0.0 0.0017835828780765066 0.0
0.0 0.0017835828786394877 0.0
0.0 0.0017835828791740813 0.0
0.0 0.0017835828797042922 0.0
0.0 0.0017835828802179505 0.0
0.0 0.0017835828807089447 0.0
0.0 0.00178358288119828 0.0
0.0 0.0017835828816611392 0.0
0.0 0.001783582882113269 0.0
0.0 0.0017835828825560702 0.0
0.0 0.0017835828829716879 0.0
0.0 0.001783582883385406 0.0
0.0 0.0017835828837773594 0.0
0.0 0.0017835828841516281 0.0
0.0 0.0017835828845228407 0.0
0.0 0.0017835828848635734 0.0
0.0 0.0017835828852020375 0.0
0.0 0.001783582885521795 0.0
0.0 0.0017835828858201173 0.0
0.0 0.0017835828861178181 0.0
0.0 0.001783582886385103 0.0
0.0 0.0017835828866476203 0.0
0.0 0.0017835828868953047 0.0
0.0 0.0017835828871178 0.0
0.0 0.001783582887342049 0.0
0.0 0.0017835828875353349 0.0
0.0 0.001783582887722851 0.0
0.0 0.0017835828878971314 0.0
0.0 0.0017835828880451109 0.0
0.0 0.0017835828881947776 0.0
0.0 0.00178358288831486 0.0
0.0 0.0017835828884269654 0.0
0.0 0.0017835828885281717 0.0
0.0 0.001783582888601257 0.0
0.0 0.0017835828886769364 0.0
0.0 0.0017835828887230426 0.0
0.0 0.001783582888760619 0.0
0.0 0.001783582888787848 0.0
0.0 0.0017835828887878518 0.0
0.0 0.0017835828887606182 0.0
0.0 0.0017835828887230465 0.0
0.0 0.0017835828886769516 0.0
0.0 0.0017835828886012643 0.0
0.0 0.0017835828885281791 0.0
0.0 0.00178358288842697 0.0
0.0 0.0017835828883148715 0.0
0.0 0.001783582888194783 0.0
0.0 0.0017835828880451079 0.0
0.0 0.0017835828878971212 0.0
0.0 0.0017835828877228474 0.0
0.0 0.0017835828875353355 0.0
0.0 0.001783582887342029 0.0
0.0 0.0017835828871177928 0.0
0.0 0.0017835828868953132 0.0
0.0 0.0017835828866476218 0.0
0.0 0.0017835828863851024 0.0
0.0 0.0017835828861178199 0.0
0.0 0.0017835828858201077 0.0
0.0 0.0017835828855217826 0.0
0.0 0.0017835828852020264 0.0
0.0 0.0017835828848635686 0.0
0.0 0.0017835828845228364 0.0
0.0 0.0017835828841516342 0.0
0.0 0.0017835828837773474 0.0
0.0 0.0017835828833854012 0.0
0.0 0.001783582882971689 0.0
0.0 0.0017835828825560735 0.0
0.0 0.0017835828821132574 0.0
0.0 0.0017835828816611496 0.0
0.0 0.0017835828811982616 0.0
0.0 0.001783582880708946 0.0
0.0 0.0017835828802179644 0.0
0.0 0.001783582879704286 0.0
0.0 0.0017835828791740891 0.0
0.0 0.001783582878639488 0.0
0.0 0.0017835828780765164 0.0
0.0 0.0017835828775075958 0.0
0.0 0.0017835828769253326 0.0
0.0 0.0017835828763159657 0.0
0.0 0.001783582875709189 0.0
0.0 0.0017835828750740422 0.0
0.0 0.001783582874425792 0.0
0.0 0.001783582873775208 0.0
0.0 0.0017835828730889214 0.0
0.0 0.0017835828724081203 0.0
0.0 0.0017835828717043573 0.0
0.0 0.0017835828709524802 0.0
0.0 0.0017835828700589217 0.0
0.0 0.0017835828683617522 0.0
0.0 0.0017835828633849817 0.0
0.0 0.0017835828457562497 0.0
0.0 0.00178358278344439 0.0
0.0 0.0017835825747736633 0.0
0.0 0.0017835819167230477 0.0
0.0 0.0017835799597692916 0.0
0.0 0.0017835744531405774 0.0