# vtk DataFile Version 2.0
data_352
ASCII
DATASET UNSTRUCTURED_GRID
POINTS 804 float
0.0 0.0 0.0
0.1 0.0 0.0
0.1 20.0 0.0
0.0 20.0 0.0
0.0 0.0 -0.1
0.1 0.0 -0.1
0.1 20.0 -0.1
0.0 20.0 -0.1
0.1 0.09999999999992462 0.0
0.1 0.1999999999998517 0.0
0.1 0.2999999999997818 0.0
0.1 0.399999999999712 0.0
0.1 0.4999999999996377 0.0
0.1 0.5999999999995541 0.0
0.1 0.6999999999994495 0.0
0.1 0.7999999999993355 0.0
0.1 0.8999999999992101 0.0
0.1 0.999999999999102 0.0
0.1 1.099999999999006 0.0
0.1 1.199999999998936 0.0
0.1 1.299999999998867 0.0
0.1 1.399999999998797 0.0
0.1 1.499999999998727 0.0
0.1 1.599999999998657 0.0
0.1 1.699999999998587 0.0
0.1 1.799999999998517 0.0
0.1 1.899999999998447 0.0
0.1 1.999999999998378 0.0
0.1 2.099999999998308 0.0
0.1 2.199999999998238 0.0
0.1 2.299999999998168 0.0
0.1 2.399999999998067 0.0
0.1 2.499999999997942 0.0
0.1 2.599999999997706 0.0
0.1 2.699999999997444 0.0
0.1 2.799999999997153 0.0
0.1 2.899999999996861 0.0
0.1 2.999999999996569 0.0
0.1 3.099999999996277 0.0
0.1 3.199999999995984 0.0
0.1 3.299999999995693 0.0
0.1 3.399999999995401 0.0
0.1 3.499999999995108 0.0
0.1 3.599999999994816 0.0
0.1 3.699999999994525 0.0
0.1 3.799999999994232 0.0
0.1 3.89999999999394 0.0
0.1 3.999999999993648 0.0
0.1 4.099999999993356 0.0
0.1 4.199999999993064 0.0
0.1 4.299999999992772 0.0
0.1 4.399999999992479 0.0
0.1 4.499999999992188 0.0
0.1 4.599999999991895 0.0
0.1 4.699999999991603 0.0
0.1 4.799999999991311 0.0
0.1 4.899999999991019 0.0
0.1 4.999999999990727 0.0
0.1 5.099999999990436 0.0
0.1 5.199999999990144 0.0
0.1 5.299999999989851 0.0
0.1 5.399999999989559 0.0
0.1 5.499999999989267 0.0
0.1 5.599999999988975 0.0
0.1 5.699999999988683 0.0
0.1 5.799999999988391 0.0
0.1 5.899999999988099 0.0
0.1 5.999999999987806 0.0
0.1 6.099999999987515 0.0
0.1 6.199999999987222 0.0
0.1 6.299999999986929 0.0
0.1 6.399999999986638 0.0
0.1 6.499999999986345 0.0
0.1 6.599999999986054 0.0
0.1 6.699999999985762 0.0
0.1 6.79999999998547 0.0
0.1 6.899999999985177 0.0
0.1 6.999999999984885 0.0
0.1 7.099999999984593 0.0
0.1 7.199999999984302 0.0
0.1 7.299999999984009 0.0
0.1 7.399999999983717 0.0
0.1 7.499999999983426 0.0
0.1 7.599999999983132 0.0
0.1 7.699999999982841 0.0
0.1 7.799999999982549 0.0
0.1 7.899999999982256 0.0
0.1 7.999999999982034 0.0
0.1 8.099999999981964 0.0
0.1 8.199999999982062 0.0
0.1 8.299999999982214 0.0
0.1 8.399999999982366 0.0
0.1 8.499999999982517 0.0
0.1 8.59999999998267 0.0
0.1 8.699999999982822 0.0
0.1 8.799999999982973 0.0
0.1 8.899999999983125 0.0
0.1 8.999999999983277 0.0
0.1 9.09999999998343 0.0
0.1 9.19999999998358 0.0
0.1 9.299999999983733 0.0
0.1 9.399999999983885 0.0
0.1 9.499999999984038 0.0
0.1 9.599999999984188 0.0
0.1 9.69999999998434 0.0
0.1 9.799999999984493 0.0
0.1 9.899999999984646 0.0
0.1 9.999999999984798 0.0
0.1 10.09999999998495 0.0
0.1 10.1999999999851 0.0
0.1 10.29999999998525 0.0
0.1 10.39999999998541 0.0
0.1 10.49999999998556 0.0
0.1 10.59999999998571 0.0
0.1 10.69999999998586 0.0
0.1 10.79999999998601 0.0
0.1 10.89999999998616 0.0
0.1 10.99999999998632 0.0
0.1 11.09999999998647 0.0
0.1 11.19999999998662 0.0
0.1 11.29999999998677 0.0
0.1 11.39999999998693 0.0
0.1 11.49999999998708 0.0
0.1 11.59999999998723 0.0
0.1 11.69999999998738 0.0
0.1 11.79999999998754 0.0
0.1 11.89999999998769 0.0
0.1 11.99999999998784 0.0
0.1 12.09999999998799 0.0
0.1 12.19999999998814 0.0
0.1 12.2999999999883 0.0
0.1 12.39999999998845 0.0
0.1 12.4999999999886 0.0
0.1 12.59999999998875 0.0
0.1 12.6999999999889 0.0
0.1 12.79999999998905 0.0
0.1 12.89999999998921 0.0
0.1 12.99999999998936 0.0
0.1 13.09999999998951 0.0
0.1 13.19999999998966 0.0
0.1 13.29999999998982 0.0
0.1 13.39999999998997 0.0
0.1 13.49999999999012 0.0
0.1 13.59999999999027 0.0
0.1 13.69999999999042 0.0
0.1 13.79999999999057 0.0
0.1 13.89999999999073 0.0
0.1 13.99999999999088 0.0
0.1 14.09999999999103 0.0
0.1 14.19999999999118 0.0
0.1 14.29999999999134 0.0
0.1 14.39999999999149 0.0
0.1 14.49999999999164 0.0
0.1 14.59999999999179 0.0
0.1 14.69999999999194 0.0
0.1 14.7999999999921 0.0
0.1 14.89999999999225 0.0
0.1 14.9999999999924 0.0
0.1 15.09999999999255 0.0
0.1 15.1999999999927 0.0
0.1 15.29999999999285 0.0
0.1 15.39999999999301 0.0
0.1 15.49999999999316 0.0
0.1 15.59999999999331 0.0
0.1 15.69999999999346 0.0
0.1 15.79999999999362 0.0
0.1 15.89999999999377 0.0
0.1 15.99999999999392 0.0
0.1 16.09999999999407 0.0
0.1 16.19999999999422 0.0
0.1 16.29999999999437 0.0
0.1 16.39999999999453 0.0
0.1 16.49999999999468 0.0
0.1 16.59999999999483 0.0
0.1 16.69999999999498 0.0
0.1 16.79999999999514 0.0
0.1 16.89999999999528 0.0
0.1 16.99999999999544 0.0
0.1 17.09999999999559 0.0
0.1 17.19999999999574 0.0
0.1 17.29999999999589 0.0
0.1 17.39999999999605 0.0
0.1 17.4999999999962 0.0
0.1 17.59999999999635 0.0
0.1 17.6999999999965 0.0
0.1 17.79999999999665 0.0
0.1 17.89999999999681 0.0
0.1 17.99999999999696 0.0
0.1 18.09999999999711 0.0
0.1 18.19999999999726 0.0
0.1 18.29999999999742 0.0
0.1 18.39999999999757 0.0
0.1 18.49999999999772 0.0
0.1 18.59999999999787 0.0
0.1 18.69999999999802 0.0
0.1 18.79999999999818 0.0
0.1 18.89999999999833 0.0
0.1 18.99999999999848 0.0
0.1 19.09999999999863 0.0
0.1 19.19999999999878 0.0
0.1 19.29999999999894 0.0
0.1 19.39999999999909 0.0
0.1 19.49999999999924 0.0
0.1 19.59999999999939 0.0
0.1 19.69999999999955 0.0
0.1 19.7999999999997 0.0
0.1 19.89999999999985 0.0
0.0 19.9 0.0
0.0 19.8 0.0
0.0 19.7 0.0
0.0 19.6 0.0
0.0 19.5 0.0
0.0 19.4 0.0
0.0 19.3 0.0
0.0 19.2 0.0
0.0 19.1 0.0
0.0 19.0 0.0
0.0 18.9 0.0
0.0 18.8 0.0
0.0 18.7 0.0
0.0 18.6 0.0
0.0 18.5 0.0
0.0 18.4 0.0
0.0 18.3 0.0
0.0 18.2 0.0
0.0 18.1 0.0
0.0 18.0 0.0
0.0 17.9 0.0
0.0 17.8 0.0
0.0 17.7 0.0
0.0 17.6 0.0
0.0 17.5 0.0
0.0 17.4 0.0
0.0 17.3 0.0
0.0 17.2 0.0
0.0 17.09999999999999 0.0
0.0 17.0 0.0
0.0 16.9 0.0
0.0 16.8 0.0
0.0 16.7 0.0
0.0 16.59999999999999 0.0
0.0 16.49999999999999 0.0
0.0 16.4 0.0
0.0 16.29999999999999 0.0
0.0 16.2 0.0
0.0 16.09999999999999 0.0
0.0 15.99999999999999 0.0
0.0 15.89999999999999 0.0
0.0 15.79999999999999 0.0
0.0 15.69999999999999 0.0
0.0 15.59999999999999 0.0
0.0 15.49999999999999 0.0
0.0 15.39999999999999 0.0
0.0 15.29999999999999 0.0
0.0 15.19999999999999 0.0
0.0 15.09999999999999 0.0
0.0 14.99999999999999 0.0
0.0 14.89999999999999 0.0
0.0 14.79999999999999 0.0
0.0 14.69999999999999 0.0
0.0 14.59999999999999 0.0
0.0 14.49999999999999 0.0
0.0 14.39999999999999 0.0
0.0 14.29999999999999 0.0
0.0 14.19999999999999 0.0
0.0 14.09999999999999 0.0
0.0 13.99999999999999 0.0
0.0 13.89999999999999 0.0
0.0 13.79999999999999 0.0
0.0 13.69999999999999 0.0
0.0 13.59999999999999 0.0
0.0 13.49999999999999 0.0
0.0 13.39999999999999 0.0
0.0 13.29999999999999 0.0
0.0 13.19999999999999 0.0
0.0 13.09999999999999 0.0
0.0 12.99999999999999 0.0
0.0 12.89999999999999 0.0
0.0 12.79999999999999 0.0
0.0 12.69999999999999 0.0
0.0 12.59999999999999 0.0
0.0 12.49999999999999 0.0
0.0 12.39999999999999 0.0
0.0 12.29999999999999 0.0
0.0 12.19999999999999 0.0
0.0 12.09999999999999 0.0
0.0 11.99999999999999 0.0
0.0 11.89999999999999 0.0
0.0 11.79999999999999 0.0
0.0 11.69999999999999 0.0
0.0 11.59999999999999 0.0
0.0 11.49999999999999 0.0
0.0 11.39999999999999 0.0
0.0 11.29999999999999 0.0
0.0 11.19999999999999 0.0
0.0 11.09999999999999 0.0
0.0 10.99999999999999 0.0
0.0 10.89999999999999 0.0
0.0 10.79999999999999 0.0
0.0 10.69999999999999 0.0
0.0 10.59999999999999 0.0
0.0 10.49999999999999 0.0
0.0 10.39999999999999 0.0
0.0 10.29999999999999 0.0
0.0 10.19999999999999 0.0
0.0 10.09999999999999 0.0
0.0 9.999999999999993 0.0
0.0 9.899999999999993 0.0
0.0 9.799999999999994 0.0
0.0 9.699999999999992 0.0
0.0 9.599999999999993 0.0
0.0 9.499999999999993 0.0
0.0 9.399999999999993 0.0
0.0 9.299999999999995 0.0
0.0 9.199999999999996 0.0
0.0 9.099999999999994 0.0
0.0 8.999999999999995 0.0
0.0 8.899999999999995 0.0
0.0 8.799999999999994 0.0
0.0 8.699999999999994 0.0
0.0 8.599999999999994 0.0
0.0 8.499999999999995 0.0
0.0 8.399999999999995 0.0
0.0 8.299999999999994 0.0
0.0 8.199999999999994 0.0
0.0 8.099999999999994 0.0
0.0 7.999999999999993 0.0
0.0 7.899999999999995 0.0
0.0 7.799999999999995 0.0
0.0 7.699999999999996 0.0
0.0 7.599999999999996 0.0
0.0 7.499999999999996 0.0
0.0 7.399999999999995 0.0
0.0 7.299999999999995 0.0
0.0 7.199999999999996 0.0
0.0 7.099999999999994 0.0
0.0 6.999999999999995 0.0
0.0 6.899999999999995 0.0
0.0 6.799999999999995 0.0
0.0 6.699999999999996 0.0
0.0 6.599999999999994 0.0
0.0 6.499999999999995 0.0
0.0 6.399999999999997 0.0
0.0 6.299999999999997 0.0
0.0 6.199999999999996 0.0
0.0 6.099999999999996 0.0
0.0 5.999999999999996 0.0
0.0 5.899999999999997 0.0
0.0 5.799999999999997 0.0
0.0 5.699999999999996 0.0
0.0 5.599999999999996 0.0
0.0 5.499999999999996 0.0
0.0 5.399999999999995 0.0
0.0 5.299999999999995 0.0
0.0 5.199999999999996 0.0
0.0 5.099999999999996 0.0
0.0 4.999999999999998 0.0
0.0 4.899999999999999 0.0
0.0 4.799999999999997 0.0
0.0 4.699999999999998 0.0
0.0 4.599999999999998 0.0
0.0 4.499999999999996 0.0
0.0 4.399999999999997 0.0
0.0 4.299999999999997 0.0
0.0 4.199999999999998 0.0
0.0 4.099999999999998 0.0
0.0 3.999999999999996 0.0
0.0 3.899999999999999 0.0
0.0 3.799999999999997 0.0
0.0 3.699999999999996 0.0
0.0 3.599999999999998 0.0
0.0 3.5 0.0
0.0 3.399999999999999 0.0
0.0 3.299999999999997 0.0
0.0 3.199999999999999 0.0
0.0 3.099999999999998 0.0
0.0 3.0 0.0
0.0 2.899999999999999 0.0
0.0 2.799999999999997 0.0
0.0 2.699999999999999 0.0
0.0 2.599999999999998 0.0
0.0 2.499999999999996 0.0
0.0 2.399999999999999 0.0
0.0 2.299999999999997 0.0
0.0 2.199999999999999 0.0
0.0 2.100000000000001 0.0
0.0 2.0 0.0
0.0 1.899999999999999 0.0
0.0 1.800000000000001 0.0
0.0 1.699999999999999 0.0
0.0 1.599999999999998 0.0
0.0 1.5 0.0
0.0 1.399999999999999 0.0
0.0 1.299999999999997 0.0
0.0 1.199999999999999 0.0
0.0 1.099999999999998 0.0
0.0 1.0 0.0
0.0 0.8999999999999986 0.0
0.0 0.8000000000000007 0.0
0.0 0.6999999999999993 0.0
0.0 0.6000000000000014 0.0
0.0 0.5 0.0
0.0 0.3999999999999986 0.0
0.0 0.3000000000000007 0.0
0.0 0.1999999999999993 0.0
[...]
POINT_DATA 804
VECTORS displacement double
0.0 0.0 0.0
0.0 0.0 0.0
0.0 -0.0017869529415798153 0.0
0.0 -0.0017869529415798203 0.0
0.0 0.0 0.0
0.0 0.0 0.0
0.0 -0.0017869529415798179 0.0
0.0 -0.0017869529415798315 0.0
0.0 6.310761085614707e-08 0.0
0.0 -5.985078829715647e-08 0.0
0.0 -6.560862974206397e-09 0.0
0.0 6.555313043093155e-08 0.0
0.0 -5.357131189715371e-08 0.0
0.0 -1.701179178298332e-08 0.0
0.0 6.774706148404337e-08 0.0
0.0 -4.037825853454455e-08 0.0
0.0 -3.496588564066505e-08 0.0
0.0 6.783486406744779e-08 0.0
0.0 -1.4503250132205393e-08 0.0
0.0 -6.231180500996249e-08 0.0
0.0 5.972514909816872e-08 0.0
0.0 3.0806224888971544e-08 0.0
0.0 -9.520158900814852e-08 0.0
0.0 3.093628125455815e-08 0.0
0.0 9.864097684012144e-08 0.0
0.0 -1.1668052225114115e-07 0.0
0.0 -3.609366010315913e-08 0.0
0.0 1.75969847532466e-07 0.0
0.0 -8.957264852770515e-08 0.0
0.0 -1.4955562191478123e-07 0.0
0.0 2.127427519046375e-07 0.0
0.0 3.3917558198848036e-08 0.0
0.0 -2.682229430040092e-07 0.0
0.0 1.1275886076221084e-07 0.0
0.0 2.5141299141968343e-07 0.0
0.0 -2.496915521524569e-07 0.0
0.0 -1.9574454382615924e-07 0.0
0.0 3.850628901103824e-07 0.0
0.0 1.0024221091823897e-07 0.0
0.0 -5.290779599004585e-07 0.0
0.0 5.487221179227682e-08 0.0
0.0 6.56546632695301e-07 0.0
0.0 -2.549526266377362e-07 0.0
0.0 -7.693088950928005e-07 0.0
0.0 4.604888145620721e-07 0.0
0.0 9.285938380844478e-07 0.0
0.0 -6.743724209478767e-07 0.0
0.0 -1.2126237903751574e-06 0.0
0.0 9.038955931063462e-07 0.0
0.0 1.6908065984669646e-06 0.0
0.0 -1.0683059616177256e-06 0.0
0.0 -2.501895345435195e-06 0.0
0.0 9.308313574119212e-07 0.0
0.0 3.838244608148561e-06 0.0
0.0 1.3845200647084823e-08 0.0
0.0 -5.694999166818733e-06 0.0
0.0 -2.857325318785363e-06 0.0
0.0 7.150674356865128e-06 0.0
0.0 9.34338366369305e-06 0.0
0.0 -4.5630494226270976e-06 0.0
0.0 -1.994695590937339e-05 0.0
0.0 -1.1766172150349435e-05 0.0
0.0 2.345374716195874e-05 0.0
0.0 5.0428668079529644e-05 0.0
0.0 1.2117813477465315e-05 0.0
0.0 -0.0001330893572923384 0.0
0.0 -0.00038420714337479605 0.0
0.0 -0.000699205421283502 0.0
0.0 -0.0010188619993594268 0.0
0.0 -0.0012937573200043787 0.0
0.0 -0.0014991591457856517 0.0
0.0 -0.0016344211790831375 0.0
0.0 -0.0017136272519010635 0.0
0.0 -0.001755070044675297 0.0
0.0 -0.0017744603397391663 0.0
0.0 -0.0017825850149823515 0.0
0.0 -0.0017856000815568201 0.0
0.0 -0.0017865913153309776 0.0
0.0 -0.0017868756266949705 0.0
0.0 -0.001786935415884417 0.0
0.0 -0.001786955368254944 0.0
0.0 -0.0017869498692362528 0.0
0.0 -0.0017869534157816413 0.0
0.0 -0.00178695348092533 0.0
0.0 -0.0017869496043906477 0.0
0.0 -0.0017869559336008123 0.0
0.0 -0.001786948885501175 0.0
0.0 -0.001786954815674039 0.0
0.0 -0.0017869514566988083 0.0
0.0 -0.0017869515300681293 0.0
0.0 -0.0017869546284120775 0.0
0.0 -0.0017869492342377914 0.0
0.0 -0.001786955576808374 0.0
0.0 -0.0017869497827606225 0.0
0.0 -0.0017869537564671593 0.0
0.0 -0.0017869524103029343 0.0
0.0 -0.0017869509499905847 0.0
0.0 -0.0017869548024684783 0.0
0.0 -0.0017869494569056374 0.0
0.0 -0.00178695515723244 0.0
0.0 -0.0017869502565631948 0.0
0.0 -0.0017869534387177932 0.0
0.0 -0.0017869525230421411 0.0
0.0 -0.0017869510929239677 0.0
0.0 -0.001786954524151319 0.0
0.0 -0.001786949787984983 0.0
0.0 -0.001786954954653764 0.0
0.0 -0.0017869502669903112 0.0
0.0 -0.001786953710448117 0.0
0.0 -0.0017869520380795756 0.0
0.0 -0.0017869517397299806 0.0
0.0 -0.0017869538964829896 0.0
0.0 -0.001786950285123126 0.0
0.0 -0.001786954761275789 0.0
0.0 -0.0017869501147184839 0.0
0.0 -0.0017869542628197968 0.0
0.0 -0.0017869511838580392 0.0
0.0 -0.0017869528132134008 0.0
0.0 -0.001786952807158248 0.0
0.0 -0.001786951249653282 0.0
0.0 -0.0017869541235707644 0.0
0.0 -0.0017869503410968051 0.0
0.0 -0.0017869545461948614 0.0
0.0 -0.0017869504366512534 0.0
0.0 -0.001786953982813733 0.0
0.0 -0.0017869513864533766 0.0
0.0 -0.0017869527832664017 0.0
0.0 -0.0017869527011266197 0.0
0.0 -0.0017869515074551189 0.0
0.0 -0.0017869538186177695 0.0
0.0 -0.0017869506594898592 0.0
0.0 -0.0017869543391240154 0.0
0.0 -0.0017869505052487344 0.0
0.0 -0.0017869541428827537 0.0
0.0 -0.0017869510223084474 0.0
0.0 -0.0017869533772399825 0.0
0.0 -0.0017869519653023616 0.0
0.0 -0.0017869523530880424 0.0
0.0 -0.0017869529919855368 0.0
0.0 -0.0017869514115844544 0.0
0.0 -0.0017869537903307789 0.0
0.0 -0.0017869508137791801 0.0
0.0 -0.0017869541649904268 0.0
0.0 -0.0017869506818469177 0.0
0.0 -0.0017869540677003355 0.0
0.0 -0.0017869509951345922 0.0
0.0 -0.0017869535786090881 0.0
0.0 -0.0017869516264155368 0.0
0.0 -0.0017869528580231916 0.0
0.0 -0.0017869523965980906 0.0
0.0 -0.0017869520903037114 0.0
0.0 -0.0017869531279676868 0.0
0.0 -0.0017869514367560724 0.0
0.0 -0.0017869536829400433 0.0
0.0 -0.0017869510064518253 0.0
0.0 -0.0017869539833446605 0.0
0.0 -0.0017869508464180897 0.0
0.0 -0.001786954011745083 0.0
0.0 -0.0017869509474472977 0.0
0.0 -0.0017869538000656105 0.0
0.0 -0.0017869512594108899 0.0
0.0 -0.0017869534118967526 0.0
0.0 -0.0017869517099277767 0.0
0.0 -0.001786952924047617 0.0
0.0 -0.0017869522216405708 0.0
0.0 -0.0017869524111404729 0.0
0.0 -0.00178695272529178 0.0
0.0 -0.0017869519351030605 0.0
0.0 -0.0017869531676096599 0.0
0.0 -0.0017869515398090295 0.0
0.0 -0.0017869535143497913 0.0
0.0 -0.0017869512500694811 0.0
0.0 -0.0017869537495997492 0.0
0.0 -0.0017869510736851736 0.0
0.0 -0.0017869538727118687 0.0
0.0 -0.0017869510052082995 0.0
0.0 -0.0017869538941346138 0.0
0.0 -0.0017869510302707895 0.0
0.0 -0.0017869538311280717 0.0
0.0 -0.0017869511296652848 0.0
0.0 -0.0017869537040047922 0.0
0.0 -0.0017869512827024278 0.0
0.0 -0.0017869535332207876 0.0
0.0 -0.0017869514696525989 0.0
0.0 -0.001786953337397471 0.0
0.0 -0.0017869516732817816 0.0
0.0 -0.0017869531321943386 0.0
0.0 -0.0017869518796120906 0.0
0.0 -0.0017869529298683545 0.0
0.0 -0.0017869520780909867 0.0
0.0 -0.0017869527393283857 0.0
0.0 -0.0017869522613586713 0.0
0.0 -0.001786952566504272 0.0
0.0 -0.0017869524247801378 0.0
0.0 -0.0017869524148805573 0.0
0.0 -0.0017869525658733636 0.0
0.0 -0.001786952286083591 0.0
0.0 -0.0017869526837255277 0.0
0.0 -0.0017869521804471725 0.0
0.0 -0.0017869527784564899 0.0
0.0 -0.001786952097512707 0.0
0.0 -0.0017869528507602544 0.0
0.0 -0.0017869520364426567 0.0
0.0 -0.0017869529015375786 0.0
0.0 -0.0017869519963418957 0.0
0.0 -0.001786952931619961 0.0
0.0 -0.0017869519764898596 0.0
0.0 -0.0017869519764898672 0.0
0.0 -0.001786952931619979 0.0
0.0 -0.0017869519963418904 0.0
0.0 -0.0017869529015375658 0.0
0.0 -0.0017869520364426526 0.0
0.0 -0.0017869528507602483 0.0
0.0 -0.0017869520975127072 0.0
0.0 -0.0017869527784564808 0.0
0.0 -0.0017869521804471727 0.0
0.0 -0.0017869526837255515 0.0
0.0 -0.0017869522860835825 0.0
0.0 -0.0017869525658733574 0.0
0.0 -0.0017869524148805584 0.0
0.0 -0.001786952424780143 0.0
0.0 -0.0017869525665042847 0.0
0.0 -0.001786952261358667 0.0
0.0 -0.0017869527393283924 0.0
0.0 -0.0017869520780910092 0.0
0.0 -0.0017869529298683501 0.0
0.0 -0.0017869518796120953 0.0
0.0 -0.001786953132194349 0.0
0.0 -0.0017869516732817862 0.0
0.0 -0.001786953337397478 0.0
0.0 -0.001786951469652604 0.0
0.0 -0.0017869535332207804 0.0
0.0 -0.00178695128270243 0.0
0.0 -0.0017869537040047824 0.0
0.0 -0.0017869511296652832 0.0
0.0 -0.0017869538311280654 0.0
0.0 -0.0017869510302707912 0.0
0.0 -0.0017869538941346047 0.0
0.0 -0.0017869510052083008 0.0
0.0 -0.0017869538727118604 0.0
0.0 -0.0017869510736851692 0.0
0.0 -0.0017869537495997494 0.0
0.0 -0.0017869512500694677 0.0
0.0 -0.0017869535143498004 0.0
0.0 -0.001786951539809038 0.0
0.0 -0.0017869531676096672 0.0
0.0 -0.001786951935103052 0.0
0.0 -0.0017869527252917681 0.0
0.0 -0.0017869524111404603 0.0
0.0 -0.0017869522216405849 0.0
0.0 -0.0017869529240476145 0.0
0.0 -0.0017869517099277931 0.0
0.0 -0.0017869534118967704 0.0
0.0 -0.001786951259410909 0.0
0.0 -0.0017869538000655854 0.0
0.0 -0.0017869509474472904 0.0
0.0 -0.0017869540117450898 0.0
0.0 -0.0017869508464180952 0.0
0.0 -0.0017869539833446754 0.0
0.0 -0.0017869510064518306 0.0
0.0 -0.0017869536829400402 0.0
0.0 -0.001786951436756067 0.0
0.0 -0.001786953127967672 0.0
0.0 -0.0017869520903037186 0.0
0.0 -0.0017869523965981008 0.0
0.0 -0.0017869528580231936 0.0
0.0 -0.001786951626415557 0.0
0.0 -0.0017869535786091053 0.0
0.0 -0.0017869509951345753 0.0
0.0 -0.0017869540677003387 0.0
0.0 -0.0017869506818469117 0.0
0.0 -0.0017869541649904197 0.0
0.0 -0.0017869508137791877 0.0
0.0 -0.0017869537903307687 0.0
0.0 -0.00178695141158445 0.0
0.0 -0.0017869529919855292 0.0
0.0 -0.0017869523530880459 0.0
0.0 -0.0017869519653023575 0.0
0.0 -0.0017869533772399936 0.0
0.0 -0.0017869510223084612 0.0
0.0 -0.0017869541428827494 0.0
0.0 -0.0017869505052487409 0.0
0.0 -0.0017869543391240222 0.0
0.0 -0.0017869506594898601 0.0
0.0 -0.0017869538186177562 0.0
0.0 -0.001786951507455118 0.0
0.0 -0.001786952701126606 0.0
0.0 -0.0017869527832663967 0.0
0.0 -0.0017869513864533942 0.0
0.0 -0.0017869539828137303 0.0
0.0 -0.0017869504366512493 0.0
0.0 -0.0017869545461948488 0.0
0.0 -0.0017869503410968084 0.0
0.0 -0.0017869541235707724 0.0
0.0 -0.0017869512496532835 0.0
0.0 -0.0017869528071582375 0.0
0.0 -0.001786952813213399 0.0
0.0 -0.0017869511838580364 0.0
0.0 -0.0017869542628197932 0.0
0.0 -0.0017869501147184791 0.0
0.0 -0.0017869547612757942 0.0
0.0 -0.0017869502851231428 0.0
0.0 -0.00178695389648299 0.0
0.0 -0.0017869517397299827 0.0
0.0 -0.0017869520380795637 0.0
0.0 -0.0017869537104481 0.0
0.0 -0.0017869502669903112 0.0
0.0 -0.001786954954653774 0.0
0.0 -0.001786949787984975 0.0
0.0 -0.001786954524151312 0.0
0.0 -0.0017869510929239734 0.0
0.0 -0.0017869525230421435 0.0
0.0 -0.001786953438717789 0.0
0.0 -0.0017869502565631887 0.0
0.0 -0.0017869551572324306 0.0
0.0 -0.0017869494569056417 0.0
0.0 -0.0017869548024684776 0.0
0.0 -0.001786950949990563 0.0
0.0 -0.001786952410302957 0.0
0.0 -0.0017869537564671547 0.0
0.0 -0.0017869497827606323 0.0
0.0 -0.00178695557680836 0.0
0.0 -0.001786949234237775 0.0
0.0 -0.0017869546284120738 0.0
0.0 -0.001786951530068126 0.0
0.0 -0.0017869514566987998 0.0
0.0 -0.0017869548156740276 0.0
0.0 -0.0017869488855011694 0.0
0.0 -0.0017869559336008253 0.0
0.0 -0.0017869496043906507 0.0
0.0 -0.0017869534809253364 0.0
0.0 -0.001786953415781639 0.0
0.0 -0.001786949869236256 0.0
0.0 -0.0017869553682549383 0.0
0.0 -0.001786935415884423 0.0
0.0 -0.0017868756266950043 0.0
0.0 -0.00178659131533105 0.0
0.0 -0.001785600081557062 0.0
0.0 -0.0017825850149830323 0.0
0.0 -0.0017744603397409331 0.0
0.0 -0.0017550700446792387 0.0
0.0 -0.0017136272519089142 0.0
0.0 -0.0016344211790970855 0.0
0.0 -0.0014991591458077664 0.0
0.0 -0.0012937573200353298 0.0
0.0 -0.001018861999397327 0.0
0.0 -0.000699205421323346 0.0
0.0 -0.00038420714340953486 0.0
0.0 -0.0001330893573157517 0.0
0.0 1.2117813467566615e-05 0.0
0.0 5.0428668079965514e-05 0.0
0.0 2.3453747166227953e-05 0.0
0.0 -1.1766172147807652e-05 0.0
0.0 -1.9946955910069367e-05 0.0
0.0 -4.5630494244635006e-06 0.0
0.0 9.343383663108311e-06 0.0
0.0 7.150674357674903e-06 0.0
0.0 -2.857325318055157e-06 0.0
0.0 -5.694999167045344e-06 0.0
0.0 1.3845200096302513e-08 0.0
0.0 3.838244608140477e-06 0.0
0.0 9.308313577698784e-07 0.0
0.0 -2.5018953453541937e-06 0.0
0.0 -1.0683059618484366e-06 0.0
0.0 1.690806598381008e-06 0.0
0.0 9.038955932625053e-07 0.0
0.0 -1.2126237903012538e-06 0.0
0.0 -6.743724210479432e-07 0.0
0.0 9.285938380423368e-07 0.0
0.0 4.6048881463734444e-07 0.0
0.0 -7.693088950642402e-07 0.0
0.0 -2.5495262668741445e-07 0.0
0.0 6.565466326847904e-07 0.0
0.0 5.487221183389017e-08 0.0
0.0 -5.290779599071586e-07 0.0
0.0 1.0024221089090054e-07 0.0
0.0 3.8506289011690255e-07 0.0
0.0 -1.9574454380372221e-07 0.0
0.0 -2.4969155216433066e-07 0.0
0.0 2.5141299141343694e-07 0.0
0.0 1.1275886077410601e-07 0.0
0.0 -2.682229430018396e-07 0.0
0.0 3.391755819727329e-08 0.0
0.0 2.127427519093827e-07 0.0
0.0 -1.495556219102202e-07 0.0
0.0 -8.957264853585071e-08 0.0
0.0 1.759698475308307e-07 0.0
0.0 -3.609366009814233e-08 0.0
0.0 -1.1668052225405456e-07 0.0
0.0 9.864097683748523e-08 0.0
0.0 3.0936281260103384e-08 0.0
0.0 -9.52015890042983e-08 0.0
0.0 3.080622488716701e-08 0.0
0.0 5.972514910025674e-08 0.0
0.0 -6.231180500683258e-08 0.0
0.0 -1.4503250130541285e-08 0.0
0.0 6.783486406939547e-08 0.0
0.0 -3.496588563996293e-08 0.0
0.0 -4.037825853510955e-08 0.0
0.0 6.774706148423202e-08 0.0
0.0 -1.7011791783225346e-08 0.0
0.0 -5.357131189884028e-08 0.0
0.0 6.555313043120273e-08 0.0
0.0 -6.560862972327461e-09 0.0
0.0 -5.985078829956064e-08 0.0
0.0 6.310761085314109e-08 0.0
0.0 6.310761085474993e-08 0.0
0.0 -5.985078829860455e-08 0.0
0.0 -6.560862971834214e-09 0.0
0.0 6.555313043121406e-08 0.0
0.0 -5.357131189715492e-08 0.0
0.0 -1.7011791783907526e-08 0.0
0.0 6.774706148492827e-08 0.0
0.0 -4.037825853212534e-08 0.0
0.0 -3.496588564062504e-08 0.0
0.0 6.78348640670353e-08 0.0
0.0 -1.4503250133195548e-08 0.0
0.0 -6.231180500938902e-08 0.0
0.0 5.972514910061879e-08 0.0
0.0 3.08062248898134e-08 0.0
0.0 -9.520158900872413e-08 0.0
0.0 3.0936281251949315e-08 0.0
0.0 9.864097683873292e-08 0.0
0.0 -1.1668052224604637e-07 0.0
0.0 -3.6093660098534446e-08 0.0
0.0 1.7596984753081335e-07 0.0
0.0 -8.957264853158948e-08 0.0
0.0 -1.4955562191483454e-07 0.0
0.0 2.127427519050998e-07 0.0
0.0 3.391755819993721e-08 0.0
0.0 -2.682229430055992e-07 0.0
0.0 1.1275886076180688e-07 0.0
0.0 2.5141299141847763e-07 0.0
0.0 -2.496915521559773e-07 0.0
0.0 -1.957445438245767e-07 0.0
0.0 3.8506289010756936e-07 0.0
0.0 1.0024221092086873e-07 0.0
0.0 -5.290779598984223e-07 0.0
0.0 5.487221179717533e-08 0.0
0.0 6.565466326956013e-07 0.0
0.0 -2.549526266315803e-07 0.0
0.0 -7.693088950873473e-07 0.0
0.0 4.6048881456657573e-07 0.0
0.0 9.285938380844365e-07 0.0
0.0 -6.743724209489775e-07 0.0
0.0 -1.2126237903711552e-06 0.0
0.0 9.038955931149816e-07 0.0
0.0 1.6908065984671418e-06 0.0
0.0 -1.0683059616229535e-06 0.0
0.0 -2.501895345436842e-06 0.0
0.0 9.308313574210259e-07 0.0
0.0 3.838244608160835e-06 0.0
0.0 1.3845200644448114e-08 0.0
0.0 -5.694999166824415e-06 0.0
0.0 -2.8573253187909952e-06 0.0
0.0 7.150674356862541e-06 0.0
0.0 9.34338366369919e-06 0.0
0.0 -4.563049422625002e-06 0.0
0.0 -1.994695590937137e-05 0.0
0.0 -1.1766172150346836e-05 0.0
0.0 2.34537471619563e-05 0.0
0.0 5.042866807953624e-05 0.0
0.0 1.211781347748139e-05 0.0
0.0 -0.000133089357292323 0.0
0.0 -0.00038420714337479697 0.0
0.0 -0.0006992054212834961 0.0
0.0 -0.0010188619993594123 0.0
0.0 -0.001293757320004376 0.0
0.0 -0.0014991591457856539 0.0
0.0 -0.0016344211790831284 0.0
0.0 -0.0017136272519010496 0.0
0.0 -0.001755070044675295 0.0
0.0 -0.0017744603397391741 0.0
0.0 -0.001782585014982341 0.0
0.0 -0.001785600081556812 0.0
0.0 -0.001786591315330968 0.0
0.0 -0.0017868756266949835 0.0
0.0 -0.0017869354158844201 0.0
0.0 -0.001786955368254948 0.0
0.0 -0.0017869498692362593 0.0
0.0 -0.0017869534157816417 0.0
0.0 -0.001786953480925339 0.0
0.0 -0.001786949604390649 0.0
0.0 -0.0017869559336008284 0.0
0.0 -0.0017869488855011785 0.0
0.0 -0.0017869548156740228 0.0
0.0 -0.0017869514566987937 0.0
0.0 -0.0017869515300681252 0.0
0.0 -0.001786954628412065 0.0
0.0 -0.0017869492342377823 0.0
0.0 -0.001786955576808356 0.0
0.0 -0.0017869497827606203 0.0
0.0 -0.0017869537564671489 0.0
0.0 -0.0017869524103029436 0.0
0.0 -0.0017869509499905782 0.0
0.0 -0.0017869548024684774 0.0
0.0 -0.0017869494569056497 0.0
0.0 -0.0017869551572324447 0.0
0.0 -0.0017869502565631802 0.0
0.0 -0.001786953438717782 0.0
0.0 -0.0017869525230421565 0.0
0.0 -0.001786951092923987 0.0
0.0 -0.0017869545241513064 0.0
0.0 -0.0017869497879849773 0.0
0.0 -0.001786954954653764 0.0
0.0 -0.0017869502669903073 0.0
0.0 -0.0017869537104481111 0.0
0.0 -0.0017869520380795628 0.0
0.0 -0.0017869517397299708 0.0
0.0 -0.0017869538964829905 0.0
0.0 -0.0017869502851231458 0.0
0.0 -0.0017869547612757964 0.0
0.0 -0.0017869501147184821 0.0
0.0 -0.0017869542628197869 0.0
0.0 -0.001786951183858041 0.0
0.0 -0.0017869528132133884 0.0
0.0 -0.001786952807158246 0.0
0.0 -0.001786951249653274 0.0
0.0 -0.0017869541235707687 0.0
0.0 -0.0017869503410967978 0.0
0.0 -0.0017869545461948416 0.0
0.0 -0.0017869504366512506 0.0
0.0 -0.0017869539828137423 0.0
0.0 -0.0017869513864533862 0.0
0.0 -0.0017869527832664065 0.0
0.0 -0.001786952701126614 0.0
0.0 -0.0017869515074551178 0.0
0.0 -0.0017869538186177634 0.0
0.0 -0.001786950659489856 0.0
0.0 -0.0017869543391240215 0.0
0.0 -0.0017869505052487398 0.0
0.0 -0.001786954142882758 0.0
0.0 -0.0017869510223084632 0.0
0.0 -0.001786953377239991 0.0
0.0 -0.001786951965302354 0.0
0.0 -0.0017869523530880456 0.0
0.0 -0.0017869529919855409 0.0
0.0 -0.001786951411584446 0.0
0.0 -0.0017869537903307765 0.0
0.0 -0.001786950813779187 0.0
0.0 -0.001786954164990422 0.0
0.0 -0.0017869506818469145 0.0
0.0 -0.0017869540677003433 0.0
0.0 -0.0017869509951345811 0.0
0.0 -0.0017869535786090988 0.0
0.0 -0.001786951626415554 0.0
0.0 -0.0017869528580231903 0.0
0.0 -0.0017869523965980873 0.0
0.0 -0.0017869520903037255 0.0
0.0 -0.0017869531279676707 0.0
0.0 -0.0017869514367560794 0.0
0.0 -0.0017869536829400437 0.0
0.0 -0.0017869510064518269 0.0
0.0 -0.0017869539833446583 0.0
0.0 -0.0017869508464180965 0.0
0.0 -0.0017869540117450946 0.0
0.0 -0.0017869509474473003 0.0
0.0 -0.0017869538000655973 0.0
0.0 -0.0017869512594108968 0.0
0.0 -0.001786953411896771 0.0
0.0 -0.0017869517099277944 0.0
0.0 -0.0017869529240476202 0.0
0.0 -0.0017869522216405797 0.0
0.0 -0.0017869524111404677 0.0
0.0 -0.0017869527252917714 0.0
0.0 -0.0017869519351030557 0.0
0.0 -0.0017869531676096612 0.0
0.0 -0.0017869515398090314 0.0
0.0 -0.001786953514349808 0.0
0.0 -0.001786951250069468 0.0
0.0 -0.001786953749599758 0.0
0.0 -0.0017869510736851738 0.0
0.0 -0.0017869538727118613 0.0
0.0 -0.0017869510052082964 0.0
0.0 -0.001786953894134614 0.0
0.0 -0.0017869510302707967 0.0
0.0 -0.0017869538311280505 0.0
0.0 -0.0017869511296652893 0.0
0.0 -0.0017869537040047837 0.0
0.0 -0.0017869512827024356 0.0
0.0 -0.0017869535332207926 0.0
0.0 -0.001786951469652599 0.0
0.0 -0.0017869533373974728 0.0
0.0 -0.0017869516732817873 0.0
0.0 -0.001786953132194355 0.0
0.0 -0.0017869518796120951 0.0
0.0 -0.0017869529298683545 0.0
0.0 -0.0017869520780909953 0.0
0.0 -0.001786952739328374 0.0
0.0 -0.001786952261358653 0.0
0.0 -0.001786952566504282 0.0
0.0 -0.001786952424780142 0.0
0.0 -0.001786952414880543 0.0
0.0 -0.0017869525658733574 0.0
0.0 -0.001786952286083585 0.0
0.0 -0.0017869526837255402 0.0
0.0 -0.0017869521804471655 0.0
0.0 -0.0017869527784564784 0.0
0.0 -0.0017869520975127146 0.0
0.0 -0.0017869528507602486 0.0
0.0 -0.00178695203644264 0.0
0.0 -0.0017869529015375652 0.0
0.0 -0.0017869519963418924 0.0
0.0 -0.001786952931619968 0.0
0.0 -0.0017869519764898646 0.0
0.0 -0.0017869519764898646 0.0
0.0 -0.001786952931619969 0.0
0.0 -0.001786951996341894 0.0
0.0 -0.001786952901537578 0.0
0.0 -0.001786952036442655 0.0
0.0 -0.0017869528507602444 0.0
0.0 -0.0017869520975127072 0.0
0.0 -0.0017869527784564966 0.0
0.0 -0.001786952180447176 0.0
0.0 -0.0017869526837255372 0.0
0.0 -0.001786952286083586 0.0
0.0 -0.00178695256587335 0.0
0.0 -0.0017869524148805608 0.0
0.0 -0.0017869524247801313 0.0
0.0 -0.0017869525665042834 0.0
0.0 -0.001786952261358667 0.0
0.0 -0.0017869527393283911 0.0
0.0 -0.0017869520780909984 0.0
0.0 -0.001786952929868352 0.0
0.0 -0.0017869518796120854 0.0
0.0 -0.0017869531321943464 0.0
0.0 -0.001786951673281783 0.0
0.0 -0.0017869533373974698 0.0
0.0 -0.001786951469652591 0.0
0.0 -0.001786953533220776 0.0
0.0 -0.001786951282702432 0.0
0.0 -0.001786953704004795 0.0
0.0 -0.0017869511296652785 0.0
0.0 -0.0017869538311280578 0.0
0.0 -0.0017869510302707873 0.0
0.0 -0.0017869538941346086 0.0
0.0 -0.0017869510052083018 0.0
0.0 -0.001786953872711867 0.0
0.0 -0.0017869510736851716 0.0
0.0 -0.0017869537495997486 0.0
0.0 -0.0017869512500694844 0.0
0.0 -0.001786953514349787 0.0
0.0 -0.0017869515398090269 0.0
0.0 -0.00178695316760966 0.0
0.0 -0.001786951935103066 0.0
0.0 -0.0017869527252917755 0.0
0.0 -0.0017869524111404661 0.0
0.0 -0.001786952221640576 0.0
0.0 -0.001786952924047621 0.0
0.0 -0.0017869517099277843 0.0
0.0 -0.0017869534118967704 0.0