# vtk DataFile Version 2.0
data_215
ASCII
DATASET UNSTRUCTURED_GRID
POINTS 804 float
0.0 0.0 0.0
0.1 0.0 0.0
0.1 20.0 0.0
0.0 20.0 0.0
0.0 0.0 -0.1
0.1 0.0 -0.1
0.1 20.0 -0.1
0.0 20.0 -0.1
0.1 0.09999999999992462 0.0
0.1 0.1999999999998517 0.0
0.1 0.2999999999997818 0.0
0.1 0.399999999999712 0.0
0.1 0.4999999999996377 0.0
0.1 0.5999999999995541 0.0
0.1 0.6999999999994495 0.0
0.1 0.7999999999993355 0.0
0.1 0.8999999999992101 0.0
0.1 0.999999999999102 0.0
0.1 1.099999999999006 0.0
0.1 1.199999999998936 0.0
0.1 1.299999999998867 0.0
0.1 1.399999999998797 0.0
0.1 1.499999999998727 0.0
0.1 1.599999999998657 0.0
0.1 1.699999999998587 0.0
0.1 1.799999999998517 0.0
0.1 1.899999999998447 0.0
0.1 1.999999999998378 0.0
0.1 2.099999999998308 0.0
0.1 2.199999999998238 0.0
0.1 2.299999999998168 0.0
0.1 2.399999999998067 0.0
0.1 2.499999999997942 0.0
0.1 2.599999999997706 0.0
0.1 2.699999999997444 0.0
0.1 2.799999999997153 0.0
0.1 2.899999999996861 0.0
0.1 2.999999999996569 0.0
0.1 3.099999999996277 0.0
0.1 3.199999999995984 0.0
0.1 3.299999999995693 0.0
0.1 3.399999999995401 0.0
0.1 3.499999999995108 0.0
0.1 3.599999999994816 0.0
0.1 3.699999999994525 0.0
0.1 3.799999999994232 0.0
0.1 3.89999999999394 0.0
0.1 3.999999999993648 0.0
0.1 4.099999999993356 0.0
0.1 4.199999999993064 0.0
0.1 4.299999999992772 0.0
0.1 4.399999999992479 0.0
0.1 4.499999999992188 0.0
0.1 4.599999999991895 0.0
0.1 4.699999999991603 0.0
0.1 4.799999999991311 0.0
0.1 4.899999999991019 0.0
0.1 4.999999999990727 0.0
0.1 5.099999999990436 0.0
0.1 5.199999999990144 0.0
0.1 5.299999999989851 0.0
0.1 5.399999999989559 0.0
0.1 5.499999999989267 0.0
0.1 5.599999999988975 0.0
0.1 5.699999999988683 0.0
0.1 5.799999999988391 0.0
0.1 5.899999999988099 0.0
0.1 5.999999999987806 0.0
0.1 6.099999999987515 0.0
0.1 6.199999999987222 0.0
0.1 6.299999999986929 0.0
0.1 6.399999999986638 0.0
0.1 6.499999999986345 0.0
0.1 6.599999999986054 0.0
0.1 6.699999999985762 0.0
0.1 6.79999999998547 0.0
0.1 6.899999999985177 0.0
0.1 6.999999999984885 0.0
0.1 7.099999999984593 0.0
0.1 7.199999999984302 0.0
0.1 7.299999999984009 0.0
0.1 7.399999999983717 0.0
0.1 7.499999999983426 0.0
0.1 7.599999999983132 0.0
0.1 7.699999999982841 0.0
0.1 7.799999999982549 0.0
0.1 7.899999999982256 0.0
0.1 7.999999999982034 0.0
0.1 8.099999999981964 0.0
0.1 8.199999999982062 0.0
0.1 8.299999999982214 0.0
0.1 8.399999999982366 0.0
0.1 8.499999999982517 0.0
0.1 8.59999999998267 0.0
0.1 8.699999999982822 0.0
0.1 8.799999999982973 0.0
0.1 8.899999999983125 0.0
0.1 8.999999999983277 0.0
0.1 9.09999999998343 0.0
0.1 9.19999999998358 0.0
0.1 9.299999999983733 0.0
0.1 9.399999999983885 0.0
0.1 9.499999999984038 0.0
0.1 9.599999999984188 0.0
0.1 9.69999999998434 0.0
0.1 9.799999999984493 0.0
0.1 9.899999999984646 0.0
0.1 9.999999999984798 0.0
0.1 10.09999999998495 0.0
0.1 10.1999999999851 0.0
0.1 10.29999999998525 0.0
0.1 10.39999999998541 0.0
0.1 10.49999999998556 0.0
0.1 10.59999999998571 0.0
0.1 10.69999999998586 0.0
0.1 10.79999999998601 0.0
0.1 10.89999999998616 0.0
0.1 10.99999999998632 0.0
0.1 11.09999999998647 0.0
0.1 11.19999999998662 0.0
0.1 11.29999999998677 0.0
0.1 11.39999999998693 0.0
0.1 11.49999999998708 0.0
0.1 11.59999999998723 0.0
0.1 11.69999999998738 0.0
0.1 11.79999999998754 0.0
0.1 11.89999999998769 0.0
0.1 11.99999999998784 0.0
0.1 12.09999999998799 0.0
0.1 12.19999999998814 0.0
0.1 12.2999999999883 0.0
0.1 12.39999999998845 0.0
0.1 12.4999999999886 0.0
0.1 12.59999999998875 0.0
0.1 12.6999999999889 0.0
0.1 12.79999999998905 0.0
0.1 12.89999999998921 0.0
0.1 12.99999999998936 0.0
0.1 13.09999999998951 0.0
0.1 13.19999999998966 0.0
0.1 13.29999999998982 0.0
0.1 13.39999999998997 0.0
0.1 13.49999999999012 0.0
0.1 13.59999999999027 0.0
0.1 13.69999999999042 0.0
0.1 13.79999999999057 0.0
0.1 13.89999999999073 0.0
0.1 13.99999999999088 0.0
0.1 14.09999999999103 0.0
0.1 14.19999999999118 0.0
0.1 14.29999999999134 0.0
0.1 14.39999999999149 0.0
0.1 14.49999999999164 0.0
0.1 14.59999999999179 0.0
0.1 14.69999999999194 0.0
0.1 14.7999999999921 0.0
0.1 14.89999999999225 0.0
0.1 14.9999999999924 0.0
0.1 15.09999999999255 0.0
0.1 15.1999999999927 0.0
0.1 15.29999999999285 0.0
0.1 15.39999999999301 0.0
0.1 15.49999999999316 0.0
0.1 15.59999999999331 0.0
0.1 15.69999999999346 0.0
0.1 15.79999999999362 0.0
0.1 15.89999999999377 0.0
0.1 15.99999999999392 0.0
0.1 16.09999999999407 0.0
0.1 16.19999999999422 0.0
0.1 16.29999999999437 0.0
0.1 16.39999999999453 0.0
0.1 16.49999999999468 0.0
0.1 16.59999999999483 0.0
0.1 16.69999999999498 0.0
0.1 16.79999999999514 0.0
0.1 16.89999999999528 0.0
0.1 16.99999999999544 0.0
0.1 17.09999999999559 0.0
0.1 17.19999999999574 0.0
0.1 17.29999999999589 0.0
0.1 17.39999999999605 0.0
0.1 17.4999999999962 0.0
0.1 17.59999999999635 0.0
0.1 17.6999999999965 0.0
0.1 17.79999999999665 0.0
0.1 17.89999999999681 0.0
0.1 17.99999999999696 0.0
0.1 18.09999999999711 0.0
0.1 18.19999999999726 0.0
0.1 18.29999999999742 0.0
0.1 18.39999999999757 0.0
0.1 18.49999999999772 0.0
0.1 18.59999999999787 0.0
0.1 18.69999999999802 0.0
0.1 18.79999999999818 0.0
0.1 18.89999999999833 0.0
0.1 18.99999999999848 0.0
0.1 19.09999999999863 0.0
0.1 19.19999999999878 0.0
0.1 19.29999999999894 0.0
0.1 19.39999999999909 0.0
0.1 19.49999999999924 0.0
0.1 19.59999999999939 0.0
0.1 19.69999999999955 0.0
0.1 19.7999999999997 0.0
0.1 19.89999999999985 0.0
0.0 19.9 0.0
0.0 19.8 0.0
0.0 19.7 0.0
0.0 19.6 0.0
0.0 19.5 0.0
0.0 19.4 0.0
0.0 19.3 0.0
0.0 19.2 0.0
0.0 19.1 0.0
0.0 19.0 0.0
0.0 18.9 0.0
0.0 18.8 0.0
0.0 18.7 0.0
0.0 18.6 0.0
0.0 18.5 0.0
0.0 18.4 0.0
0.0 18.3 0.0
0.0 18.2 0.0
0.0 18.1 0.0
0.0 18.0 0.0
0.0 17.9 0.0
0.0 17.8 0.0
0.0 17.7 0.0
0.0 17.6 0.0
0.0 17.5 0.0
0.0 17.4 0.0
0.0 17.3 0.0
0.0 17.2 0.0
0.0 17.09999999999999 0.0
0.0 17.0 0.0
0.0 16.9 0.0
0.0 16.8 0.0
0.0 16.7 0.0
0.0 16.59999999999999 0.0
0.0 16.49999999999999 0.0
0.0 16.4 0.0
0.0 16.29999999999999 0.0
0.0 16.2 0.0
0.0 16.09999999999999 0.0
0.0 15.99999999999999 0.0
0.0 15.89999999999999 0.0
0.0 15.79999999999999 0.0
0.0 15.69999999999999 0.0
0.0 15.59999999999999 0.0
0.0 15.49999999999999 0.0
0.0 15.39999999999999 0.0
0.0 15.29999999999999 0.0
0.0 15.19999999999999 0.0
0.0 15.09999999999999 0.0
0.0 14.99999999999999 0.0
0.0 14.89999999999999 0.0
0.0 14.79999999999999 0.0
0.0 14.69999999999999 0.0
0.0 14.59999999999999 0.0
0.0 14.49999999999999 0.0
0.0 14.39999999999999 0.0
0.0 14.29999999999999 0.0
0.0 14.19999999999999 0.0
0.0 14.09999999999999 0.0
0.0 13.99999999999999 0.0
0.0 13.89999999999999 0.0
0.0 13.79999999999999 0.0
0.0 13.69999999999999 0.0
0.0 13.59999999999999 0.0
0.0 13.49999999999999 0.0
0.0 13.39999999999999 0.0
0.0 13.29999999999999 0.0
0.0 13.19999999999999 0.0
0.0 13.09999999999999 0.0
0.0 12.99999999999999 0.0
0.0 12.89999999999999 0.0
0.0 12.79999999999999 0.0
0.0 12.69999999999999 0.0
0.0 12.59999999999999 0.0
0.0 12.49999999999999 0.0
0.0 12.39999999999999 0.0
0.0 12.29999999999999 0.0
0.0 12.19999999999999 0.0
0.0 12.09999999999999 0.0
0.0 11.99999999999999 0.0
0.0 11.89999999999999 0.0
0.0 11.79999999999999 0.0
0.0 11.69999999999999 0.0
0.0 11.59999999999999 0.0
0.0 11.49999999999999 0.0
0.0 11.39999999999999 0.0
0.0 11.29999999999999 0.0
0.0 11.19999999999999 0.0
0.0 11.09999999999999 0.0
0.0 10.99999999999999 0.0
0.0 10.89999999999999 0.0
0.0 10.79999999999999 0.0
0.0 10.69999999999999 0.0
0.0 10.59999999999999 0.0
0.0 10.49999999999999 0.0
0.0 10.39999999999999 0.0
0.0 10.29999999999999 0.0
0.0 10.19999999999999 0.0
0.0 10.09999999999999 0.0
0.0 9.999999999999993 0.0
0.0 9.899999999999993 0.0
0.0 9.799999999999994 0.0
0.0 9.699999999999992 0.0
0.0 9.599999999999993 0.0
0.0 9.499999999999993 0.0
0.0 9.399999999999993 0.0
0.0 9.299999999999995 0.0
0.0 9.199999999999996 0.0
0.0 9.099999999999994 0.0
0.0 8.999999999999995 0.0
0.0 8.899999999999995 0.0
0.0 8.799999999999994 0.0
0.0 8.699999999999994 0.0
0.0 8.599999999999994 0.0
0.0 8.499999999999995 0.0
0.0 8.399999999999995 0.0
0.0 8.299999999999994 0.0
0.0 8.199999999999994 0.0
0.0 8.099999999999994 0.0
0.0 7.999999999999993 0.0
0.0 7.899999999999995 0.0
0.0 7.799999999999995 0.0
0.0 7.699999999999996 0.0
0.0 7.599999999999996 0.0
0.0 7.499999999999996 0.0
0.0 7.399999999999995 0.0
0.0 7.299999999999995 0.0
0.0 7.199999999999996 0.0
0.0 7.099999999999994 0.0
0.0 6.999999999999995 0.0
0.0 6.899999999999995 0.0
0.0 6.799999999999995 0.0
0.0 6.699999999999996 0.0
0.0 6.599999999999994 0.0
0.0 6.499999999999995 0.0
0.0 6.399999999999997 0.0
0.0 6.299999999999997 0.0
0.0 6.199999999999996 0.0
0.0 6.099999999999996 0.0
0.0 5.999999999999996 0.0
0.0 5.899999999999997 0.0
0.0 5.799999999999997 0.0
0.0 5.699999999999996 0.0
0.0 5.599999999999996 0.0
0.0 5.499999999999996 0.0
0.0 5.399999999999995 0.0
0.0 5.299999999999995 0.0
0.0 5.199999999999996 0.0
0.0 5.099999999999996 0.0
0.0 4.999999999999998 0.0
0.0 4.899999999999999 0.0
0.0 4.799999999999997 0.0
0.0 4.699999999999998 0.0
0.0 4.599999999999998 0.0
0.0 4.499999999999996 0.0
0.0 4.399999999999997 0.0
0.0 4.299999999999997 0.0
0.0 4.199999999999998 0.0
0.0 4.099999999999998 0.0
0.0 3.999999999999996 0.0
0.0 3.899999999999999 0.0
0.0 3.799999999999997 0.0
0.0 3.699999999999996 0.0
0.0 3.599999999999998 0.0
0.0 3.5 0.0
0.0 3.399999999999999 0.0
0.0 3.299999999999997 0.0
0.0 3.199999999999999 0.0
0.0 3.099999999999998 0.0
0.0 3.0 0.0
0.0 2.899999999999999 0.0
0.0 2.799999999999997 0.0
0.0 2.699999999999999 0.0
0.0 2.599999999999998 0.0
0.0 2.499999999999996 0.0
0.0 2.399999999999999 0.0
0.0 2.299999999999997 0.0
0.0 2.199999999999999 0.0
0.0 2.100000000000001 0.0
0.0 2.0 0.0
0.0 1.899999999999999 0.0
0.0 1.800000000000001 0.0
0.0 1.699999999999999 0.0
0.0 1.599999999999998 0.0
0.0 1.5 0.0
0.0 1.399999999999999 0.0
0.0 1.299999999999997 0.0
0.0 1.199999999999999 0.0
0.0 1.099999999999998 0.0
0.0 1.0 0.0
0.0 0.8999999999999986 0.0
0.0 0.8000000000000007 0.0
0.0 0.6999999999999993 0.0
0.0 0.6000000000000014 0.0
0.0 0.5 0.0
0.0 0.3999999999999986 0.0
0.0 0.3000000000000007 0.0
0.0 0.1999999999999993 0.0
[...]
POINT_DATA 804
VECTORS displacement double
0.0 0.0 0.0
0.0 0.0 0.0
0.0 -0.0017876431615760618 0.0
0.0 -0.001787643161576045 0.0
0.0 0.0 0.0
0.0 0.0 0.0
0.0 -0.001787643161576065 0.0
0.0 -0.00178764316157605 0.0
0.0 -1.7482217096397036e-32 0.0
0.0 2.395849100942681e-31 0.0
0.0 4.470191916059534e-31 0.0
0.0 -1.0500362692820343e-29 0.0
0.0 -1.1414173737806897e-29 0.0
0.0 4.3601812900652185e-28 0.0
0.0 3.691549713193872e-28 0.0
0.0 -1.7404897721713016e-26 0.0
0.0 -1.915945404721207e-26 0.0
0.0 6.65809135279658e-25 0.0
0.0 1.234777140212304e-24 0.0
0.0 -2.3836554037041392e-23 0.0
0.0 -7.563261075287553e-23 0.0
0.0 7.555130294570635e-22 0.0
0.0 4.0435207067102904e-21 0.0
0.0 -1.8467741599101894e-20 0.0
0.0 -1.8214585148354257e-19 0.0
0.0 1.644289885367598e-19 0.0
0.0 6.537696327238741e-18 0.0
0.0 1.4757334817450965e-17 0.0
0.0 -1.6000880998455078e-16 0.0
0.0 -1.0431623219578084e-15 0.0
0.0 8.368138870175095e-16 0.0
0.0 3.4781708904088164e-14 0.0
0.0 1.3090894366570577e-13 0.0
0.0 -3.707811745833395e-13 0.0
0.0 -5.5120440109311e-12 0.0
0.0 -1.9377423186250142e-11 0.0
0.0 3.586531663322196e-11 0.0
0.0 7.073124813137768e-10 0.0
0.0 3.5212421156283294e-09 0.0
0.0 6.104258113894378e-09 0.0
0.0 -3.948681204964322e-08 0.0
0.0 -4.182603195683164e-07 0.0
0.0 -2.281576286201302e-06 0.0
0.0 -9.213967745625802e-06 0.0
0.0 -3.0147024261145997e-05 0.0
0.0 -8.295138273386542e-05 0.0
0.0 -0.00019553611332532122 0.0
0.0 -0.000398728604357936 0.0
0.0 -0.0007068781775525314 0.0
0.0 -0.0010923812058738292 0.0
0.0 -0.001475406937321522 0.0
0.0 -0.00175275119404341 0.0
0.0 -0.0018622301377333925 0.0
0.0 -0.0018339578695835044 0.0
0.0 -0.001769662847976607 0.0
0.0 -0.0017540241451443638 0.0
0.0 -0.001785817883130514 0.0
0.0 -0.0018076625492169083 0.0
0.0 -0.001793535874633867 0.0
0.0 -0.001775562353552044 0.0
0.0 -0.001782461261269064 0.0
0.0 -0.0017958753416175127 0.0
0.0 -0.0017912956739084768 0.0
0.0 -0.00178153039120181 0.0
0.0 -0.0017858217236324564 0.0
0.0 -0.0017926365337117868 0.0
0.0 -0.0017879856898412264 0.0
0.0 -0.0017838253306703706 0.0
0.0 -0.001788730881251613 0.0
0.0 -0.0017903503586228925 0.0
0.0 -0.0017857760432829553 0.0
0.0 -0.00178645226796858 0.0
0.0 -0.0017898648088522009 0.0
0.0 -0.0017875416433760464 0.0
0.0 -0.0017860104579583147 0.0
0.0 -0.001788857552223369 0.0
0.0 -0.0017883417702214044 0.0
0.0 -0.0017862864236257408 0.0
0.0 -0.0017881659224142528 0.0
0.0 -0.001788534293695137 0.0
0.0 -0.001786643892326891 0.0
0.0 -0.0017878370073667813 0.0
0.0 -0.0017884791310190233 0.0
0.0 -0.0017868945187523907 0.0
0.0 -0.0017877413508197823 0.0
0.0 -0.0017883497985894015 0.0
0.0 -0.0017870354983104786 0.0
0.0 -0.0017877725387699815 0.0
0.0 -0.0017881990208024141 0.0
0.0 -0.001787113512806286 0.0
0.0 -0.001787866208628629 0.0
0.0 -0.0017880294699818126 0.0
0.0 -0.0017871809878957513 0.0
0.0 -0.0017879770040492332 0.0
0.0 -0.001787836167726552 0.0
0.0 -0.0017872838216748828 0.0
0.0 -0.0017880586516856622 0.0
0.0 -0.0017876321329580135 0.0
0.0 -0.0017874492153437506 0.0
0.0 -0.0017880608116368473 0.0
0.0 -0.0017874619552331792 0.0
0.0 -0.0017876657484355348 0.0
0.0 -0.0017879489824660305 0.0
0.0 -0.001787393808609632 0.0
0.0 -0.0017878681287699443 0.0
0.0 -0.0017877421280734324 0.0
0.0 -0.0017874777544585742 0.0
0.0 -0.0017879553760998925 0.0
0.0 -0.0017875373254248152 0.0
0.0 -0.0017876824538538506 0.0
0.0 -0.0017878627998405684 0.0
0.0 -0.0017874711580563138 0.0
0.0 -0.0017878693235650312 0.0
0.0 -0.0017876521536234705 0.0
0.0 -0.0017876021783574325 0.0
0.0 -0.0017878778742777038 0.0
0.0 -0.0017875119738686867 0.0
0.0 -0.0017878073362168243 0.0
0.0 -0.0017876990432634627 0.0
0.0 -0.0017875896058730145 0.0
0.0 -0.0017878597053100082 0.0
0.0 -0.00178754172130164 0.0
0.0 -0.001787787433508305 0.0
0.0 -0.0017876973544872215 0.0
0.0 -0.0017876102399083243 0.0
0.0 -0.0017878340808479415 0.0
0.0 -0.0017875554987828695 0.0
0.0 -0.0017877965022014555 0.0
0.0 -0.0017876656524006542 0.0
0.0 -0.001787653386418174 0.0
0.0 -0.001787796866435802 0.0
0.0 -0.0017875704774200755 0.0
0.0 -0.0017878126474616476 0.0
0.0 -0.0017876203808862821 0.0
0.0 -0.0017877156100363993 0.0
0.0 -0.0017877360825383178 0.0
0.0 -0.0017876111582339892 0.0
0.0 -0.0017878054265364832 0.0
0.0 -0.0017875899704182067 0.0
0.0 -0.0017877777281545759 0.0
0.0 -0.0017876565514877841 0.0
0.0 -0.001787689380249918 0.0
0.0 -0.001787747027952807 0.0
0.0 -0.0017876146463337817 0.0
0.0 -0.0017877931873521607 0.0
0.0 -0.0017876031652679768 0.0
0.0 -0.0017877708046098472 0.0
0.0 -0.001787652836184435 0.0
0.0 -0.0017877042550619895 0.0
0.0 -0.0017877243260009585 0.0
0.0 -0.0017876391803257321 0.0
0.0 -0.0017877739152814514 0.0
0.0 -0.0017876108605859413 0.0
0.0 -0.0017877788461389342 0.0
0.0 -0.001787628043200626 0.0
0.0 -0.0017877435649202161 0.0
0.0 -0.0017876756268164836 0.0
0.0 -0.0017876902796361011 0.0
0.0 -0.0017877281551867622 0.0
0.0 -0.0017876441112403927 0.0
0.0 -0.0017877637379933437 0.0
0.0 -0.0017876217379177003 0.0
0.0 -0.0017877719229962067 0.0
0.0 -0.0017876272579455475 0.0
0.0 -0.0017877543805423484 0.0
0.0 -0.0017876543132376926 0.0
0.0 -0.0017877208043877001 0.0
0.0 -0.001787691295693988 0.0
0.0 -0.0017876833877370755 0.0
0.0 -0.0017877265515171825 0.0
0.0 -0.001787652389145303 0.0
0.0 -0.0017877517835631022 0.0
0.0 -0.0017876338549297653 0.0
0.0 -0.001787763245512713 0.0
0.0 -0.0017876293723677193 0.0
0.0 -0.0017877612331596473 0.0
0.0 -0.0017876371201532928 0.0
0.0 -0.001787748701309333 0.0
0.0 -0.001787653398265822 0.0
0.0 -0.0017877297388527536 0.0
0.0 -0.001787674034884534 0.0
0.0 -0.001787708354794196 0.0
0.0 -0.0017876953667058952 0.0
0.0 -0.001787687743997949 0.0
0.0 -0.0017877147362952179 0.0
0.0 -0.0017876700026670327 0.0
0.0 -0.0017877305967600944 0.0
0.0 -0.0017876561666180016 0.0
0.0 -0.0017877423674915913 0.0
0.0 -0.0017876464272221135 0.0
0.0 -0.0017877501764622325 0.0
0.0 -0.0017876404062006138 0.0
0.0 -0.0017877545875308453 0.0
0.0 -0.0017876374122530892 0.0
0.0 -0.0017877563691720924 0.0
0.0 -0.0017876366416362062 0.0
0.0 -0.0017877563267443342 0.0
0.0 -0.0017876373133125492 0.0
0.0 -0.0017877551979372784 0.0
0.0 -0.0017876387460186239 0.0
0.0 -0.0017877535994410326 0.0
0.0 -0.0017876403918578644 0.0
0.0 -0.0017877520091219914 0.0
0.0 -0.0017876418420989949 0.0
0.0 -0.0017877507688575595 0.0
0.0 -0.0017876428186836498 0.0
0.0 -0.0017877500961538467 0.0
0.0 -0.0017877500961538514 0.0
0.0 -0.0017876428186836444 0.0
0.0 -0.0017877507688575684 0.0
0.0 -0.001787641842099006 0.0
0.0 -0.0017877520091219982 0.0
0.0 -0.0017876403918578605 0.0
0.0 -0.0017877535994410372 0.0
0.0 -0.0017876387460186208 0.0
0.0 -0.0017877551979372877 0.0
0.0 -0.0017876373133125473 0.0
0.0 -0.001787756326744354 0.0
0.0 -0.0017876366416362081 0.0
0.0 -0.0017877563691720843 0.0
0.0 -0.0017876374122530912 0.0
0.0 -0.0017877545875308373 0.0
0.0 -0.0017876404062006162 0.0
0.0 -0.0017877501764622281 0.0
0.0 -0.0017876464272221255 0.0
0.0 -0.0017877423674916028 0.0
0.0 -0.0017876561666180072 0.0
0.0 -0.0017877305967600847 0.0
0.0 -0.001787670002667047 0.0
0.0 -0.0017877147362952274 0.0
0.0 -0.0017876877439979453 0.0
0.0 -0.0017876953667059026 0.0
0.0 -0.0017877083547941956 0.0
0.0 -0.0017876740348845355 0.0
0.0 -0.0017877297388527685 0.0
0.0 -0.0017876533982658315 0.0
0.0 -0.0017877487013093453 0.0
0.0 -0.0017876371201532987 0.0
0.0 -0.0017877612331596657 0.0
0.0 -0.0017876293723677258 0.0
0.0 -0.0017877632455127145 0.0
0.0 -0.001787633854929768 0.0
0.0 -0.0017877517835630835 0.0
0.0 -0.0017876523891453046 0.0
0.0 -0.0017877265515171923 0.0
0.0 -0.0017876833877370941 0.0
0.0 -0.0017876912956940013 0.0
0.0 -0.0017877208043876967 0.0
0.0 -0.001787654313237711 0.0
0.0 -0.0017877543805423389 0.0
0.0 -0.0017876272579455154 0.0
0.0 -0.0017877719229961952 0.0
0.0 -0.0017876217379177019 0.0
0.0 -0.001787763737993333 0.0
0.0 -0.0017876441112403987 0.0
0.0 -0.0017877281551867672 0.0
0.0 -0.0017876902796361144 0.0
0.0 -0.0017876756268164833 0.0
0.0 -0.0017877435649202127 0.0
0.0 -0.0017876280432005999 0.0
0.0 -0.0017877788461389357 0.0
0.0 -0.0017876108605859341 0.0
0.0 -0.0017877739152814447 0.0
0.0 -0.0017876391803257525 0.0
0.0 -0.001787724326000951 0.0
0.0 -0.001787704255061996 0.0
0.0 -0.0017876528361844288 0.0
0.0 -0.0017877708046098494 0.0
0.0 -0.0017876031652679773 0.0
0.0 -0.001787793187352172 0.0
0.0 -0.001787614646333792 0.0
0.0 -0.0017877470279527951 0.0
0.0 -0.001787689380249941 0.0
0.0 -0.0017876565514877679 0.0
0.0 -0.0017877777281545778 0.0
0.0 -0.0017875899704181979 0.0
0.0 -0.0017878054265364825 0.0
0.0 -0.0017876111582339792 0.0
0.0 -0.0017877360825383102 0.0
0.0 -0.0017877156100364218 0.0
0.0 -0.0017876203808862674 0.0
0.0 -0.0017878126474616582 0.0
0.0 -0.0017875704774200603 0.0
0.0 -0.0017877968664357811 0.0
0.0 -0.0017876533864181854 0.0
0.0 -0.0017876656524006328 0.0
0.0 -0.0017877965022014839 0.0
0.0 -0.0017875554987828717 0.0
0.0 -0.001787834080847928 0.0
0.0 -0.001787610239908362 0.0
0.0 -0.0017876973544871855 0.0
0.0 -0.0017877874335083285 0.0
0.0 -0.0017875417213016344 0.0
0.0 -0.0017878597053100078 0.0
0.0 -0.0017875896058730423 0.0
0.0 -0.001787699043263427 0.0
0.0 -0.0017878073362168673 0.0
0.0 -0.0017875119738686844 0.0
0.0 -0.0017878778742776904 0.0
0.0 -0.00178760217835747 0.0
0.0 -0.0017876521536234235 0.0
0.0 -0.0017878693235650848 0.0
0.0 -0.0017874711580563119 0.0
0.0 -0.0017878627998405214 0.0
0.0 -0.0017876824538539077 0.0
0.0 -0.0017875373254247734 0.0
0.0 -0.0017879553760999144 0.0
0.0 -0.0017874777544586167 0.0
0.0 -0.0017877421280733674 0.0
0.0 -0.0017878681287699918 0.0
0.0 -0.0017873938086096315 0.0
0.0 -0.0017879489824659887 0.0
0.0 -0.0017876657484356207 0.0
0.0 -0.0017874619552330918 0.0
0.0 -0.001788060811636845 0.0
0.0 -0.0017874492153438252 0.0
0.0 -0.0017876321329579063 0.0
0.0 -0.001788058651685727 0.0
0.0 -0.0017872838216749106 0.0
0.0 -0.0017878361677264292 0.0
0.0 -0.0017879770040493627 0.0
0.0 -0.0017871809878957311 0.0
0.0 -0.0017880294699816758 0.0
0.0 -0.0017878662086287926 0.0
0.0 -0.001787113512806232 0.0
0.0 -0.0017881990208022751 0.0
0.0 -0.0017877725387701997 0.0
0.0 -0.0017870354983103769 0.0
0.0 -0.001788349798589257 0.0
0.0 -0.0017877413508200382 0.0
0.0 -0.0017868945187522697 0.0
0.0 -0.0017884791310188591 0.0
0.0 -0.0017878370073670532 0.0
0.0 -0.0017866438923267959 0.0
0.0 -0.001788534293694901 0.0
0.0 -0.0017881659224145792 0.0
0.0 -0.0017862864236257313 0.0
0.0 -0.0017883417702210516 0.0
0.0 -0.001788857552223662 0.0
0.0 -0.0017860104579584951 0.0
0.0 -0.0017875416433755736 0.0
0.0 -0.0017898648088523173 0.0
0.0 -0.001786452267969078 0.0
0.0 -0.0017857760432825488 0.0
0.0 -0.0017903503586225494 0.0
0.0 -0.001788730881252279 0.0
0.0 -0.0017838253306704998 0.0
0.0 -0.00178798568984037 0.0
0.0 -0.0017926365337119364 0.0
0.0 -0.0017858217236334658 0.0
0.0 -0.0017815303912014182 0.0
0.0 -0.0017912956739072642 0.0
0.0 -0.0017958753416181129 0.0
0.0 -0.001782461261270622 0.0
0.0 -0.0017755623535514048 0.0
0.0 -0.0017935358746316594 0.0
0.0 -0.001807662549217153 0.0
0.0 -0.001785817883133725 0.0
0.0 -0.0017540241451456553 0.0
0.0 -0.0017696628479726053 0.0
0.0 -0.001833957869578301 0.0
0.0 -0.0018622301377356231 0.0
0.0 -0.001752751194058266 0.0
0.0 -0.0014754069373465585 0.0
0.0 -0.0010923812059016318 0.0
0.0 -0.0007068781775761432 0.0
0.0 -0.0003987286043741501 0.0
0.0 -0.0001955361133345753 0.0
0.0 -8.295138273829987e-05 0.0
0.0 -3.0147024262934507e-05 0.0
0.0 -9.213967746228827e-06 0.0
0.0 -2.2815762863671986e-06 0.0
0.0 -4.1826031960361244e-07 0.0
0.0 -3.94868120545989e-08 0.0
0.0 6.104258113798627e-09 0.0
0.0 3.5212421157972546e-09 0.0
0.0 7.073124813617774e-10 0.0
0.0 3.586531663866685e-11 0.0
0.0 -1.937742318669421e-11 0.0
0.0 -5.512044011193969e-12 0.0
0.0 -3.707811746173462e-13 0.0
0.0 1.3090894366790741e-13 0.0
0.0 3.4781708905483356e-14 0.0
0.0 8.368138871661862e-16 0.0
0.0 -1.04316232198129e-15 0.0
0.0 -1.6000880999225225e-16 0.0
0.0 1.4757334817292725e-17 0.0
0.0 6.537696327450017e-18 0.0
0.0 1.6442898856067658e-19 0.0
0.0 -1.8214585148752142e-19 0.0
0.0 -1.8467741600039154e-20 0.0
0.0 4.043520706757072e-21 0.0
0.0 7.5551302948403235e-22 0.0
0.0 -7.563261075283062e-23 0.0
0.0 -2.3836554037707404e-23 0.0
0.0 1.2347771401906977e-24 0.0
0.0 6.658091352945758e-25 0.0
0.0 -1.9159454046635637e-26 0.0
0.0 -1.7404897722003592e-26 0.0
0.0 3.6915497131162674e-28 0.0
0.0 4.360181290114038e-28 0.0
0.0 -1.1414173737743807e-29 0.0
0.0 -1.0500362692895081e-29 0.0
0.0 4.4701919160664625e-31 0.0
0.0 2.3958491009520317e-31 0.0
0.0 -1.7482217096478284e-32 0.0
0.0 -1.7482217096397712e-32 0.0
0.0 2.3958491009427153e-31 0.0
0.0 4.470191916059351e-31 0.0
0.0 -1.0500362692820232e-29 0.0
0.0 -1.1414173737807619e-29 0.0
0.0 4.36018129006525e-28 0.0
0.0 3.6915497131937097e-28 0.0
0.0 -1.740489772171293e-26 0.0
0.0 -1.9159454047212524e-26 0.0
0.0 6.658091352796609e-25 0.0
0.0 1.2347771402122957e-24 0.0
0.0 -2.383655403704136e-23 0.0
0.0 -7.563261075287572e-23 0.0
0.0 7.555130294570617e-22 0.0
0.0 4.043520706710275e-21 0.0
0.0 -1.8467741599101762e-20 0.0
0.0 -1.8214585148354327e-19 0.0
0.0 1.644289885367646e-19 0.0
0.0 6.537696327238745e-18 0.0
0.0 1.4757334817450697e-17 0.0
0.0 -1.600088099845497e-16 0.0
0.0 -1.0431623219578129e-15 0.0
0.0 8.368138870175452e-16 0.0
0.0 3.4781708904087855e-14 0.0
0.0 1.3090894366570597e-13 0.0
0.0 -3.7078117458334577e-13 0.0
0.0 -5.512044010931086e-12 0.0
0.0 -1.9377423186250207e-11 0.0
0.0 3.5865316633222455e-11 0.0
0.0 7.073124813137733e-10 0.0
0.0 3.5212421156283286e-09 0.0
0.0 6.104258113894351e-09 0.0
0.0 -3.9486812049643325e-08 0.0
0.0 -4.1826031956830784e-07 0.0
0.0 -2.2815762862012733e-06 0.0
0.0 -9.213967745625778e-06 0.0
0.0 -3.0147024261146004e-05 0.0
0.0 -8.295138273386564e-05 0.0
0.0 -0.00019553611332532103 0.0
0.0 -0.00039872860435793663 0.0
0.0 -0.0007068781775525318 0.0
0.0 -0.0010923812058738246 0.0
0.0 -0.0014754069373215228 0.0
0.0 -0.0017527511940434093 0.0
0.0 -0.001862230137733394 0.0
0.0 -0.001833957869583503 0.0
0.0 -0.001769662847976608 0.0
0.0 -0.0017540241451443625 0.0
0.0 -0.0017858178831305126 0.0
0.0 -0.0018076625492169025 0.0
0.0 -0.0017935358746338657 0.0
0.0 -0.001775562353552045 0.0
0.0 -0.0017824612612690647 0.0
0.0 -0.0017958753416175317 0.0
0.0 -0.0017912956739084647 0.0
0.0 -0.0017815303912018202 0.0
0.0 -0.0017858217236324584 0.0
0.0 -0.0017926365337117892 0.0
0.0 -0.0017879856898412212 0.0
0.0 -0.0017838253306703784 0.0
0.0 -0.001788730881251614 0.0
0.0 -0.001790350358622898 0.0
0.0 -0.0017857760432829501 0.0
0.0 -0.0017864522679685902 0.0
0.0 -0.0017898648088522163 0.0
0.0 -0.0017875416433760396 0.0
0.0 -0.0017860104579583008 0.0
0.0 -0.0017888575522233701 0.0
0.0 -0.0017883417702214098 0.0
0.0 -0.0017862864236257393 0.0
0.0 -0.0017881659224142587 0.0
0.0 -0.0017885342936951353 0.0
0.0 -0.0017866438923268913 0.0
0.0 -0.001787837007366781 0.0
0.0 -0.0017884791310190163 0.0
0.0 -0.0017868945187523837 0.0
0.0 -0.001787741350819799 0.0
0.0 -0.001788349798589392 0.0
0.0 -0.0017870354983104697 0.0
0.0 -0.0017877725387699809 0.0
0.0 -0.0017881990208024037 0.0
0.0 -0.0017871135128062798 0.0
0.0 -0.001787866208628625 0.0
0.0 -0.0017880294699818065 0.0
0.0 -0.0017871809878957394 0.0
0.0 -0.0017879770040492456 0.0
0.0 -0.0017878361677265667 0.0
0.0 -0.0017872838216748692 0.0
0.0 -0.0017880586516856687 0.0
0.0 -0.0017876321329580176 0.0
0.0 -0.0017874492153437402 0.0
0.0 -0.001788060811636841 0.0
0.0 -0.0017874619552331597 0.0
0.0 -0.0017876657484355261 0.0
0.0 -0.0017879489824660377 0.0
0.0 -0.001787393808609636 0.0
0.0 -0.0017878681287699307 0.0
0.0 -0.0017877421280734372 0.0
0.0 -0.0017874777544585644 0.0
0.0 -0.0017879553760999029 0.0
0.0 -0.0017875373254248145 0.0
0.0 -0.0017876824538538463 0.0
0.0 -0.0017878627998405617 0.0
0.0 -0.0017874711580563112 0.0
0.0 -0.001787869323565053 0.0
0.0 -0.0017876521536234773 0.0
0.0 -0.0017876021783574246 0.0
0.0 -0.0017878778742776962 0.0
0.0 -0.0017875119738686809 0.0
0.0 -0.0017878073362168304 0.0
0.0 -0.0017876990432634523 0.0
0.0 -0.0017875896058730106 0.0
0.0 -0.0017878597053100104 0.0
0.0 -0.0017875417213016396 0.0
0.0 -0.0017877874335083083 0.0
0.0 -0.0017876973544872145 0.0
0.0 -0.0017876102399083374 0.0
0.0 -0.0017878340808479332 0.0
0.0 -0.001787555498782869 0.0
0.0 -0.0017877965022014598 0.0
0.0 -0.001787665652400658 0.0
0.0 -0.0017876533864181715 0.0
0.0 -0.0017877968664358045 0.0
0.0 -0.001787570477420078 0.0
0.0 -0.0017878126474616572 0.0
0.0 -0.0017876203808862706 0.0
0.0 -0.0017877156100364019 0.0
0.0 -0.0017877360825383228 0.0
0.0 -0.0017876111582339716 0.0
0.0 -0.0017878054265364843 0.0
0.0 -0.0017875899704182078 0.0
0.0 -0.0017877777281545778 0.0
0.0 -0.0017876565514877798 0.0
0.0 -0.0017876893802499275 0.0
0.0 -0.0017877470279528114 0.0
0.0 -0.0017876146463338047 0.0
0.0 -0.0017877931873521839 0.0
0.0 -0.0017876031652679708 0.0
0.0 -0.0017877708046098483 0.0
0.0 -0.0017876528361844305 0.0
0.0 -0.0017877042550619895 0.0
0.0 -0.0017877243260009563 0.0
0.0 -0.0017876391803257506 0.0
0.0 -0.0017877739152814382 0.0
0.0 -0.0017876108605859398 0.0
0.0 -0.0017877788461389467 0.0
0.0 -0.001787628043200609 0.0
0.0 -0.001787743564920213 0.0
0.0 -0.0017876756268164948 0.0
0.0 -0.0017876902796360992 0.0
0.0 -0.0017877281551867713 0.0
0.0 -0.0017876441112403942 0.0
0.0 -0.0017877637379933376 0.0
0.0 -0.0017876217379177073 0.0
0.0 -0.0017877719229961975 0.0
0.0 -0.0017876272579455236 0.0
0.0 -0.0017877543805423393 0.0
0.0 -0.001787654313237713 0.0
0.0 -0.001787720804387676 0.0
0.0 -0.001787691295693993 0.0
0.0 -0.0017876833877370712 0.0
0.0 -0.00178772655151719 0.0
0.0 -0.0017876523891453007 0.0
0.0 -0.0017877517835630855 0.0
0.0 -0.0017876338549297603 0.0
0.0 -0.00178776324551271 0.0
0.0 -0.001787629372367721 0.0
0.0 -0.0017877612331596653 0.0
0.0 -0.001787637120153305 0.0
0.0 -0.0017877487013093394 0.0
0.0 -0.0017876533982658356 0.0
0.0 -0.001787729738852765 0.0
0.0 -0.0017876740348845425 0.0
0.0 -0.001787708354794195 0.0
0.0 -0.0017876953667059102 0.0
0.0 -0.0017876877439979406 0.0
0.0 -0.001787714736295236 0.0
0.0 -0.0017876700026670557 0.0
0.0 -0.0017877305967600818 0.0
0.0 -0.0017876561666180003 0.0
0.0 -0.001787742367491611 0.0
0.0 -0.0017876464272221285 0.0
0.0 -0.001787750176462247 0.0
0.0 -0.0017876404062006238 0.0
0.0 -0.001787754587530842 0.0
0.0 -0.0017876374122530938 0.0
0.0 -0.0017877563691720845 0.0
0.0 -0.0017876366416362066 0.0
0.0 -0.0017877563267443511 0.0
0.0 -0.0017876373133125496 0.0
0.0 -0.001787755197937285 0.0
0.0 -0.0017876387460186165 0.0
0.0 -0.0017877535994410307 0.0
0.0 -0.0017876403918578637 0.0
0.0 -0.0017877520091219934 0.0
0.0 -0.0017876418420989981 0.0
0.0 -0.0017877507688575606 0.0
0.0 -0.0017876428186836524 0.0
0.0 -0.0017877500961538605 0.0
0.0 -0.0017877500961538551 0.0
0.0 -0.001787642818683648 0.0
0.0 -0.0017877507688575773 0.0
0.0 -0.0017876418420989962 0.0
0.0 -0.0017877520091219997 0.0
0.0 -0.001787640391857864 0.0
0.0 -0.0017877535994410218 0.0
0.0 -0.0017876387460186243 0.0
0.0 -0.001787755197937292 0.0
0.0 -0.0017876373133125438 0.0
0.0 -0.0017877563267443377 0.0
0.0 -0.0017876366416362144 0.0
0.0 -0.0017877563691720963 0.0
0.0 -0.0017876374122530816 0.0
0.0 -0.0017877545875308412 0.0
0.0 -0.001787640406200625 0.0
0.0 -0.0017877501764622427 0.0
0.0 -0.0017876464272221252 0.0
0.0 -0.0017877423674915874 0.0
0.0 -0.0017876561666179949 0.0
0.0 -0.001787730596760088 0.0
0.0 -0.0017876700026670366 0.0
0.0 -0.001787714736295209 0.0
0.0 -0.0017876877439979434 0.0
0.0 -0.0017876953667058993 0.0
0.0 -0.0017877083547941926 0.0
0.0 -0.0017876740348845418 0.0
0.0 -0.0017877297388527663 0.0
0.0 -0.0017876533982658287 0.0
0.0 -0.0017877487013093468 0.0
0.0 -0.0017876371201533006 0.0
0.0 -0.0017877612331596595 0.0
0.0 -0.0017876293723677241 0.0
0.0 -0.0017877632455127082 0.0
0.0 -0.001787633854929757 0.0
0.0 -0.001787751783563096 0.0
0.0 -0.0017876523891453022 0.0
0.0 -0.0017877265515171658 0.0
0.0 -0.0017876833877370905 0.0
0.0 -0.0017876912956939872 0.0
0.0 -0.0017877208043876873 0.0
0.0 -0.0017876543132376908 0.0
0.0 -0.0017877543805423423 0.0
0.0 -0.0017876272579455382 0.0